%VERSION  VERSION_STAMP = V0001.000  DATE = 09/14/26  14:42:32                  
%FLAG TITLE                                                                     
%FORMAT(20a4)                                                                   
C9A                                                                             
%FLAG POINTERS                                                                  
%FORMAT(10I8)                                                                   
      32       8      11      24      21      34      42      55       0       0
     159       1      24      34      55      16      31       8      10       0
       0       0       0       0       0       0       0       0      32       0
       0
%FLAG ATOM_NAME                                                                 
%FORMAT(20a4)                                                                   
N   C   N1  C1  C2  C3  C4  C5  O   N2  C6  C7  C8  C9  N3  C10 C11 C12 N4  C13 
C14 H   H1  H2  H3  H4  H5  H6  H7  H8  H9  H10 
%FLAG CHARGE                                                                    
%FORMAT(5E16.8)                                                                 
 -1.71927401E+01  1.33241458E+01 -1.39036149E+01  1.23182748E+01  3.29276961E+00
 -3.61348209E+00 -5.10771069E+00  4.62117528E+00 -5.93682534E+00 -1.33933905E+01
  9.05283864E+00 -6.87709602E+00 -2.57298876E+00 -2.06094213E+00 -1.98987516E+00
  1.08969354E+00 -4.68859779E+00  7.41100941E+00 -1.21724964E+01  7.41100941E+00
 -4.68859779E+00  7.80461109E+00  7.80461109E+00  3.17068020E+00  2.97023490E+00
  1.00404873E+00  2.87912340E+00  3.20712480E+00  2.92467915E+00  4.84713180E-01
  4.84713180E-01  2.92467915E+00
%FLAG ATOMIC_NUMBER                                                             
%FORMAT(10I8)                                                                   
       7       6       7       6       6       6       6       6       8       7
       6       6       6       6       7       6       6       6       7       6
       6       1       1       1       1       1       1       1       1       1
       1       1
%FLAG MASS                                                                      
%FORMAT(5E16.8)                                                                 
  1.40100000E+01  1.20100000E+01  1.40100000E+01  1.20100000E+01  1.20100000E+01
  1.20100000E+01  1.20100000E+01  1.20100000E+01  1.60000000E+01  1.40100000E+01
  1.20100000E+01  1.20100000E+01  1.20100000E+01  1.20100000E+01  1.40100000E+01
  1.20100000E+01  1.20100000E+01  1.20100000E+01  1.40100000E+01  1.20100000E+01
  1.20100000E+01  1.00800000E+00  1.00800000E+00  1.00800000E+00  1.00800000E+00
  1.00800000E+00  1.00800000E+00  1.00800000E+00  1.00800000E+00  1.00800000E+00
  1.00800000E+00  1.00800000E+00
%FLAG ATOM_TYPE_INDEX                                                           
%FORMAT(10I8)                                                                   
       1       2       3       2       2       2       2       2       4       3
       2       2       2       2       5       2       2       2       3       2
       2       6       6       7       7       8       7       8       7       8
       8       7
%FLAG NUMBER_EXCLUDED_ATOMS                                                     
%FORMAT(10I8)                                                                   
       8      12      10      10       9       7       5       4       4       6
       9       8       5       6       9      10       7       6       6       4
       3       1       1       1       1       1       1       1       1       1
       1       1
%FLAG NONBONDED_PARM_INDEX                                                      
%FORMAT(10I8)                                                                   
       1       2       4       7      11      16      22      29       2       3
       5       8      12      17      23      30       4       5       6       9
      13      18      24      31       7       8       9      10      14      19
      25      32      11      12      13      14      15      20      26      33
      16      17      18      19      20      21      27      34      22      23
      24      25      26      27      28      35      29      30      31      32
      33      34      35      36
%FLAG RESIDUE_LABEL                                                             
%FORMAT(20a4)                                                                   
C9A 
%FLAG RESIDUE_POINTER                                                           
%FORMAT(10I8)                                                                   
       1
%FLAG BOND_FORCE_CONSTANT                                                       
%FORMAT(5E16.8)                                                                 
  4.17900000E+02  4.04600000E+02  3.86490000E+02  3.54250000E+02  2.96500000E+02
  3.86240000E+02  3.51190000E+02  3.21490000E+02  3.64600000E+02  3.68720000E+02
  3.29320000E+02  3.64120000E+02  3.32450000E+02  3.67290000E+02  3.60690000E+02
  3.56820000E+02
%FLAG BOND_EQUIL_VALUE                                                          
%FORMAT(5E16.8)                                                                 
  1.38600000E+00  1.01200000E+00  1.33920000E+00  1.39860000E+00  1.45280000E+00
  1.37300000E+00  1.36220000E+00  1.42790000E+00  1.08350000E+00  1.08090000E+00
  1.38580000E+00  1.08380000E+00  1.38300000E+00  1.08180000E+00  1.08600000E+00
  1.08850000E+00
%FLAG ANGLE_FORCE_CONSTANT                                                      
%FORMAT(5E16.8)                                                                 
  7.27000000E+01  6.83000000E+01  4.84000000E+01  8.31500000E+01  6.36700000E+01
  6.21900000E+01  6.81700000E+01  6.78700000E+01  7.27600000E+01  6.40000000E+01
  7.85900000E+01  6.45700000E+01  4.52500000E+01  9.54600000E+01  8.26200000E+01
  4.38000000E+01  4.39500000E+01  5.71800000E+01  7.15300000E+01  8.35100000E+01
  7.94200000E+01  6.78200000E+01  4.29800000E+01  7.19900000E+01  4.42000000E+01
  4.53000000E+01  4.80800000E+01  4.49000000E+01  4.48000000E+01  5.01000000E+01
  4.01000000E+01
%FLAG ANGLE_EQUIL_VALUE                                                         
%FORMAT(5E16.8)                                                                 
  2.04098890E+00  2.11097664E+00  2.02580453E+00  2.04622489E+00  2.09474507E+00
  2.11027850E+00  2.14570870E+00  2.07135764E+00  2.22180509E+00  2.02510640E+00
  2.02283747E+00  2.02824799E+00  2.12406661E+00  1.86383791E+00  1.94656655E+00
  2.12668460E+00  2.25339556E+00  2.01672882E+00  2.21831443E+00  1.89839544E+00
  2.09491960E+00  2.09980652E+00  2.14501057E+00  1.90223517E+00  2.22773921E+00
  2.11883062E+00  2.09736306E+00  2.09230160E+00  2.09998106E+00  2.02493187E+00
  2.00922390E+00
%FLAG DIHEDRAL_FORCE_CONSTANT                                                   
%FORMAT(5E16.8)                                                                 
  4.80000000E+00  3.62500000E+00  7.00000000E-01  1.05000000E+00  4.00000000E+00
  3.00000000E-01  1.70000000E+00  1.10000000E+00
%FLAG DIHEDRAL_PERIODICITY                                                      
%FORMAT(5E16.8)                                                                 
  2.00000000E+00  2.00000000E+00  2.00000000E+00  2.00000000E+00  2.00000000E+00
  2.00000000E+00  2.00000000E+00  2.00000000E+00
%FLAG DIHEDRAL_PHASE                                                            
%FORMAT(5E16.8)                                                                 
  3.14159400E+00  3.14159400E+00  3.14159400E+00  3.14159400E+00  3.14159400E+00
  3.14159400E+00  3.14159400E+00  3.14159400E+00
%FLAG SCEE_SCALE_FACTOR                                                         
%FORMAT(5E16.8)                                                                 
  1.20000000E+00  1.20000000E+00  1.20000000E+00  1.20000000E+00  1.20000000E+00
  1.20000000E+00  1.20000000E+00  0.00000000E+00
%FLAG SCNB_SCALE_FACTOR                                                         
%FORMAT(5E16.8)                                                                 
  2.00000000E+00  2.00000000E+00  2.00000000E+00  2.00000000E+00  2.00000000E+00
  2.00000000E+00  2.00000000E+00  0.00000000E+00
%FLAG SOLTY                                                                     
%FORMAT(5E16.8)                                                                 
  0.00000000E+00  0.00000000E+00  0.00000000E+00  0.00000000E+00  0.00000000E+00
  0.00000000E+00  0.00000000E+00  0.00000000E+00  0.00000000E+00  0.00000000E+00
%FLAG LENNARD_JONES_ACOEF                                                       
%FORMAT(5E16.8)                                                                 
  9.44293233E+05  8.11497350E+05  6.96551276E+05  8.97750460E+05  7.69642101E+05
  8.49322032E+05  5.18220260E+05  4.46121722E+05  4.94433451E+05  2.83662575E+05
  9.53586341E+05  8.20152428E+05  9.08092643E+05  5.22690526E+05  9.62429652E+05
  1.88178855E+03  1.71458823E+03  2.01475241E+03  9.46795083E+02  1.82491629E+03
  1.34728399E-01  8.64679274E+04  7.52549148E+04  8.43518904E+04  4.65732396E+04
  8.65595848E+04  9.04434904E+01  6.90855956E+03  7.19825646E+04  6.27751680E+04
  7.05112106E+04  3.86549715E+04  7.19580450E+04  6.76796831E+01  5.62610481E+03
  4.56536476E+03
%FLAG LENNARD_JONES_BCOEF                                                       
%FORMAT(5E16.8)                                                                 
  8.01323529E+02  6.48597119E+02  5.24668528E+02  6.73934129E+02  5.44830041E+02
  5.65406768E+02  4.79881022E+02  3.88758656E+02  4.04310927E+02  2.87011518E+02
  8.43016687E+02  6.82622272E+02  7.09588248E+02  5.04545572E+02  8.86629877E+02
  1.76168249E+01  1.46824710E+01  1.57231024E+01  1.01016461E+01  1.81620725E+01
  7.34107347E-02  1.34516705E+02  1.09570372E+02  1.14599119E+02  7.98066064E+01
  1.40899023E+02  2.14252117E+00  2.10929191E+01  1.22733283E+02  1.00073628E+02
  1.04776275E+02  7.27065100E+01  1.28466555E+02  1.85338491E+00  1.90347353E+01
  1.71467049E+01
%FLAG BONDS_INC_HYDROGEN                                                        
%FORMAT(10I8)                                                                   
       0      63       2       0      66       2      15      69       9      18
      72       9      21      75      10      36      78      12      39      81
      14      48      84      15      51      87      16      57      90      16
      60      93      15
%FLAG BONDS_WITHOUT_HYDROGEN                                                    
%FORMAT(10I8)                                                                   
       0       3       1       3       6       3       3      33       4       6
       9       3       9      12       5       9      27       3      12      15
       6      12      24       7      15      18       8      18      21       6
      21      24       7      27      30       3      30      33       4      30
      42      11      33      36       5      36      39       6      39      42
      13      42      45      11      45      48       4      45      60       4
      48      51       4      51      54       3      54      57       3      57
      60       4
%FLAG ANGLES_INC_HYDROGEN                                                       
%FORMAT(10I8)                                                                   
       3       0      63       3       3       0      66       3      12      15
      69      13      15      18      72      16      18      15      69      16
      18      21      75      17      21      18      72      13      24      21
      75      18      33      36      78      23      36      39      81      25
      39      36      78      26      42      39      81      27      45      48
      84      28      45      60      93      28      48      51      87      29
      51      48      84      28      54      51      87      30      54      57
      90      30      57      60      93      28      60      57      90      29
      63       0      66      31
%FLAG ANGLES_WITHOUT_HYDROGEN                                                   
%FORMAT(10I8)                                                                   
       0       3       6       1       0       3      33       2       3       6
       9       4       3      33      30       5       3      33      36       6
       6       3      33       7       6       9      12       8       6       9
      27       9       9      12      15      10       9      12      24      11
       9      27      30       4      12       9      27       8      12      15
      18      12      12      24      21      14      15      12      24      15
      15      18      21      12      18      21      24      15      27      30
      33       7      27      30      42      19      30      33      36       6
      30      42      39      20      30      42      45      21      33      30
      42      22      33      36      39      10      36      39      42      24
      39      42      45      20      42      45      48      22      42      45
      60      22      45      48      51       5      45      60      57       5
      48      45      60       5      48      51      54       7      51      54
      57       4      54      57      60       7
%FLAG DIHEDRALS_INC_HYDROGEN                                                    
%FORMAT(10I8)                                                                   
       3      33      36      78       3      63       0       3       6       4
      66       0       3       6       4       9      12      15      69       5
      12      15      18      72       5      12      24      21      75       4
      15      18      21      75       5      21      18      15      69       5
      24      21      18      72       5      24      12      15      69       5
      30      33      36      78       3      30      42      39      81       7
      33      36      39      81       5      63       0       3      33       4
      66       0       3      33       4      42      39      36      78       5
      42      45      48      84       2      42      45      60      93       2
      45      42      39      81       7      45      48      51      87       2
      45      60      57      90       2      48      45      60      93       2
      51      54      57      90       1      54      51      48      84       2
      54      57      60      93       2      57      54      51      87       1
      60      45      48      84       2      69      15      18      72       5
      72      18      21      75       5      78      36      39      81       5
      84      48      51      87       2      90      57      60      93       2
      66       0     -63      -3       8      12      18     -15     -69       8
      21      15     -18     -72       8      18      75     -21     -24       8
      33      39     -36     -78       8      36      81     -39     -42       8
      45      51     -48     -84       8      48      87     -51     -54       8
      60      90     -57     -54       8      45      57     -60     -93       8
%FLAG DIHEDRALS_WITHOUT_HYDROGEN                                                
%FORMAT(10I8)                                                                   
       0       3       6       9       1       0       3      33      30       2
       0       3      33      36       2       3       6       9      12       1
       3       6       9      27       1       3      33     -30      27       2
       3      33      30      42       2       3      33      36      39       3
       6       3      33      30       2       6       3      33      36       2
       6       9      12      15       3       6       9      12      24       3
       6       9     -27      30       1       9       6       3      33       1
       9      12      15      18       5       9      12      24      21       4
       9      27     -30      33       1       9      27      30      42       1
      12       9      27      30       1      12      15     -18      21       5
      12      24     -21      18       4      15      12       9      27       3
      15      12     -24      21       4      15      18     -21      24       5
      18      15     -12      24       5      24      12       9      27       3
      27      30      33      36       2      27      30      42      39       6
      27      30      42      45       6      30      33     -36      39       3
      30      42     -39      36       7      30      42      45      48       6
      30      42      45      60       6      33      30     -42      39       6
      33      30      42      45       6      33      36     -39      42       5
      36      33     -30      42       2      36      39      42      45       7
      39      42      45      48       6      39      42      45      60       6
      42      45      48      51       2      42      45      60      57       2
      45      48      51      54       2      45      60     -57      54       2
      48      45      60      57       2      48      51     -54      57       1
      51      48      45      60       2      51      54     -57      60       1
       0       3      -6     -33       8      12       6      -9     -27       8
       9      15     -12     -24       8      33      42     -30     -27       8
       3      30     -33     -36       8      30      45     -42     -39       8
      48      60     -45     -42       8
%FLAG EXCLUDED_ATOMS_LIST                                                       
%FORMAT(10I8)                                                                   
       2       3       4      11      12      13      22      23       3       4
       5      10      11      12      13      14      15      22      23      27
       4       5       6       9      10      11      12      13      22      23
       5       6       7       8       9      10      11      12      15      24
       6       7       8       9      10      11      24      25      26       7
       8       9      10      24      25      26       8       9      24      25
      26       9      24      25      26      10      24      25      26      11
      12      13      14      15      16      12      13      14      15      16
      17      21      27      28      13      14      15      16      22      23
      27      28      14      15      16      27      28      15      16      17
      21      27      28      16      17      18      20      21      27      28
      29      32      17      18      19      20      21      28      29      30
      31      32      18      19      20      21      29      30      32      19
      20      21      29      30      31      20      21      29      30      31
      32      21      30      31      32      29      31      32      23       0
      25      26       0      28       0      30       0      32       0
%FLAG HBOND_ACOEF                                                               
%FORMAT(5E16.8)                                                                 

%FLAG HBOND_BCOEF                                                               
%FORMAT(5E16.8)                                                                 

%FLAG HBCUT                                                                     
%FORMAT(5E16.8)                                                                 

%FLAG AMBER_ATOM_TYPE                                                           
%FORMAT(20a4)                                                                   
nv  ca  nb  ca  cc  cd  cd  cc  os  nb  ca  ca  cc  cd  na  ca  ca  ca  nb  ca  
ca  hn  hn  ha  ha  h4  ha  h4  ha  h4  h4  ha  
%FLAG TREE_CHAIN_CLASSIFICATION                                                 
%FORMAT(20a4)                                                                   
BLA BLA BLA BLA BLA BLA BLA BLA BLA BLA BLA BLA BLA BLA BLA BLA BLA BLA BLA BLA 
BLA BLA BLA BLA BLA BLA BLA BLA BLA BLA BLA BLA 
%FLAG JOIN_ARRAY                                                                
%FORMAT(10I8)                                                                   
       0       0       0       0       0       0       0       0       0       0
       0       0       0       0       0       0       0       0       0       0
       0       0       0       0       0       0       0       0       0       0
       0       0
%FLAG IROTAT                                                                    
%FORMAT(10I8)                                                                   
       0       0       0       0       0       0       0       0       0       0
       0       0       0       0       0       0       0       0       0       0
       0       0       0       0       0       0       0       0       0       0
       0       0
%FLAG RADIUS_SET                                                                
%FORMAT(1a80)                                                                   
modified Bondi radii (mbondi)                                                   
%FLAG RADII                                                                     
%FORMAT(5E16.8)                                                                 
  1.55000000E+00  1.70000000E+00  1.55000000E+00  1.70000000E+00  1.70000000E+00
  1.70000000E+00  1.70000000E+00  1.70000000E+00  1.50000000E+00  1.55000000E+00
  1.70000000E+00  1.70000000E+00  1.70000000E+00  1.70000000E+00  1.55000000E+00
  1.70000000E+00  1.70000000E+00  1.70000000E+00  1.55000000E+00  1.70000000E+00
  1.70000000E+00  1.30000000E+00  1.30000000E+00  1.30000000E+00  1.30000000E+00
  1.30000000E+00  1.30000000E+00  1.30000000E+00  1.30000000E+00  1.30000000E+00
  1.30000000E+00  1.30000000E+00
%FLAG SCREEN                                                                    
%FORMAT(5E16.8)                                                                 
  7.90000000E-01  7.20000000E-01  7.90000000E-01  7.20000000E-01  7.20000000E-01
  7.20000000E-01  7.20000000E-01  7.20000000E-01  8.50000000E-01  7.90000000E-01
  7.20000000E-01  7.20000000E-01  7.20000000E-01  7.20000000E-01  7.90000000E-01
  7.20000000E-01  7.20000000E-01  7.20000000E-01  7.90000000E-01  7.20000000E-01
  7.20000000E-01  8.50000000E-01  8.50000000E-01  8.50000000E-01  8.50000000E-01
  8.50000000E-01  8.50000000E-01  8.50000000E-01  8.50000000E-01  8.50000000E-01
  8.50000000E-01  8.50000000E-01
%FLAG IPOL                                                                      
%FORMAT(1I8)                                                                    
       0
