C9A
    32
   2.0270000  -3.2520000   1.8780000   1.4900000  -2.1520000   1.2250000
   2.3530000  -1.2570000   0.7230000   1.8590000  -0.1730000   0.0960000
   2.8190000   0.7900000  -0.4310000   2.6920000   1.9930000  -1.1030000
   4.0040000   2.4660000  -1.3530000   4.8540000   1.5270000  -0.8180000
   4.1500000   0.5110000  -0.2580000   0.5640000   0.1400000  -0.0970000
  -0.2840000  -0.7780000   0.4110000   0.1130000  -1.9290000   1.0860000
  -1.0590000  -2.6150000   1.4750000  -2.1340000  -1.8730000   1.0440000
  -1.6830000  -0.7410000   0.3780000  -2.5300000   0.2540000  -0.2190000
  -2.0120000   1.2610000  -1.0380000  -2.8830000   2.1910000  -1.5870000
  -4.2150000   2.1920000  -1.3810000  -4.6990000   1.2150000  -0.5910000
  -3.9130000   0.2380000   0.0040000   3.0060000  -3.0920000   2.0910000
   1.4620000  -3.6260000   2.6270000   1.7580000   2.4640000  -1.3760000
   4.2940000   3.3760000  -1.8580000   5.9290000   1.4380000  -0.7560000
  -1.1140000  -3.5560000   2.0080000  -3.1860000  -2.0940000   1.1440000
  -0.9640000   1.3480000  -1.2890000  -2.5150000   2.9840000  -2.2330000
  -5.7740000   1.2380000  -0.4360000  -4.4100000  -0.4890000   0.6340000
