%VERSION  VERSION_STAMP = V0001.000  DATE = 09/14/26  14:39:57                  
%FLAG TITLE                                                                     
%FORMAT(20a4)                                                                   
NEC                                                                             
%FLAG POINTERS                                                                  
%FORMAT(10I8)                                                                   
      38      15      16      24      34      35      68      68       0       0
     205       1      24      35      68      25      47      35      19       0
       0       0       0       0       0       0       0       0      38       0
       0
%FLAG ATOM_NAME                                                                 
%FORMAT(20a4)                                                                   
C   O   N   C1  C2  C3  O1  C4  O2  C5  O3  C6  N1  C7  N2  C8  C9  N3  N4  C10 
N5  C11 H   H1  H2  H3  H4  H5  H6  H7  H8  H9  H10 H11 H12 H13 H14 H15 
%FLAG CHARGE                                                                    
%FORMAT(5E16.8)                                                                 
  1.16458719E+01 -1.15729827E+01 -9.94755357E+00  1.56711780E+00 -2.11560903E+00
  4.75602030E-01 -7.46385408E+00  1.69649613E+00 -1.08932909E+01  2.26138743E+00
 -1.06381787E+01  4.49726364E+00 -5.26624470E+00  7.33812021E+00 -9.73253043E+00
 -4.35877416E+00  1.39254817E+01 -1.74660746E+01 -1.44685062E+01  1.25897871E+01
 -1.33569459E+01  8.67017034E+00  6.02247015E+00  1.11520476E+00  1.11520476E+00
  7.96314510E-01  7.96314510E-01  7.96314510E-01  1.96254171E+00  1.39765041E+00
  7.94492280E+00  1.32476121E+00  7.98136740E+00  2.70965601E+00  1.30836114E+00
  8.18727939E+00  8.18727939E+00  9.85826430E-01
%FLAG ATOMIC_NUMBER                                                             
%FORMAT(10I8)                                                                   
       6       8       7       6       6       6       8       6       8       6
       8       6       7       6       7       6       6       7       7       6
       7       6       1       1       1       1       1       1       1       1
       1       1       1       1       1       1       1       1
%FLAG MASS                                                                      
%FORMAT(5E16.8)                                                                 
  1.20100000E+01  1.60000000E+01  1.40100000E+01  1.20100000E+01  1.20100000E+01
  1.20100000E+01  1.60000000E+01  1.20100000E+01  1.60000000E+01  1.20100000E+01
  1.60000000E+01  1.20100000E+01  1.40100000E+01  1.20100000E+01  1.40100000E+01
  1.20100000E+01  1.20100000E+01  1.40100000E+01  1.40100000E+01  1.20100000E+01
  1.40100000E+01  1.20100000E+01  1.00800000E+00  1.00800000E+00  1.00800000E+00
  1.00800000E+00  1.00800000E+00  1.00800000E+00  1.00800000E+00  1.00800000E+00
  1.00800000E+00  1.00800000E+00  1.00800000E+00  1.00800000E+00  1.00800000E+00
  1.00800000E+00  1.00800000E+00  1.00800000E+00
%FLAG ATOM_TYPE_INDEX                                                           
%FORMAT(10I8)                                                                   
       1       2       3       4       4       5       6       5       7       5
       7       5       8       1       9       1       1       3       9       1
       9       1      10      11      11      12      12      12      11      11
      13      11      13      14      15      10      10      15
%FLAG NUMBER_EXCLUDED_ATOMS                                                     
%FORMAT(10I8)                                                                   
      15       7      12       8       6      13      12      11       7      11
       6      12      10       7       7       9       8       5       6       3
       2       3       2       4       3       2       1       1       1       2
       1       2       1       1       1       1       1       1
%FLAG NONBONDED_PARM_INDEX                                                      
%FORMAT(10I8)                                                                   
       1       2       4       7      11      16      22      29      37      46
      56      67      79      92     106       2       3       5       8      12
      17      23      30      38      47      57      68      80      93     107
       4       5       6       9      13      18      24      31      39      48
      58      69      81      94     108       7       8       9      10      14
      19      25      32      40      49      59      70      82      95     109
      11      12      13      14      15      20      26      33      41      50
      60      71      83      96     110      16      17      18      19      20
      21      27      34      42      51      61      72      84      97     111
      22      23      24      25      26      27      28      35      43      52
      62      73      85      98     112      29      30      31      32      33
      34      35      36      44      53      63      74      86      99     113
      37      38      39      40      41      42      43      44      45      54
      64      75      87     100     114      46      47      48      49      50
      51      52      53      54      55      65      76      88     101     115
      56      57      58      59      60      61      62      63      64      65
      66      77      89     102     116      67      68      69      70      71
      72      73      74      75      76      77      78      90     103     117
      79      80      81      82      83      84      85      86      87      88
      89      90      91     104     118      92      93      94      95      96
      97      98      99     100     101     102     103     104     105     119
     106     107     108     109     110     111     112     113     114     115
     116     117     118     119     120
%FLAG RESIDUE_LABEL                                                             
%FORMAT(20a4)                                                                   
NEC 
%FLAG RESIDUE_POINTER                                                           
%FORMAT(10I8)                                                                   
       1
%FLAG BOND_FORCE_CONSTANT                                                       
%FORMAT(5E16.8)                                                                 
  5.90600000E+02  4.27600000E+02  3.13000000E+02  3.28700000E+02  4.03200000E+02
  2.28890000E+02  3.44220000E+02  3.45250000E+02  3.08600000E+02  3.00900000E+02
  3.30600000E+02  3.16700000E+02  5.35510000E+02  3.27700000E+02  3.31700000E+02
  3.35500000E+02  3.29320000E+02  4.19720000E+02  3.66970000E+02  3.28650000E+02
  3.54250000E+02  4.17900000E+02  3.86490000E+02  4.04600000E+02  3.57590000E+02
%FLAG BOND_EQUIL_VALUE                                                          
%FORMAT(5E16.8)                                                                 
  1.21900000E+00  1.37900000E+00  1.52400000E+00  1.46200000E+00  1.01300000E+00
  1.53540000E+00  1.09690000E+00  1.09620000E+00  1.43200000E+00  1.53800000E+00
  1.09700000E+00  1.42300000E+00  9.72500000E-01  1.46300000E+00  1.09600000E+00
  1.38030000E+00  1.38580000E+00  1.31580000E+00  1.08200000E+00  1.38640000E+00
  1.39860000E+00  1.38600000E+00  1.33920000E+00  1.01200000E+00  1.08800000E+00
%FLAG ANGLE_FORCE_CONSTANT                                                      
%FORMAT(5E16.8)                                                                 
  6.34000000E+01  4.83000000E+01  6.80000000E+01  6.33000000E+01  4.70000000E+01
  7.42000000E+01  6.74000000E+01  6.68000000E+01  6.59000000E+01  4.98000000E+01
  4.58000000E+01  4.32700000E+01  4.32800000E+01  6.27000000E+01  6.75000000E+01
  6.29000000E+01  4.64000000E+01  6.80000000E+01  5.08000000E+01  7.13000000E+01
  5.09000000E+01  4.74000000E+01  5.09000000E+01  6.55000000E+01  4.62000000E+01
  6.19000000E+01  6.23000000E+01  5.02000000E+01  7.69700000E+01  4.78300000E+01
  6.78200000E+01  7.15300000E+01  8.04900000E+01  8.67900000E+01  4.88600000E+01
  6.76100000E+01  6.83000000E+01  6.81700000E+01  6.36700000E+01  4.84000000E+01
  8.31500000E+01  7.27000000E+01  7.27600000E+01  5.01600000E+01  3.56400000E+01
  3.58000000E+01  4.01000000E+01
%FLAG ANGLE_EQUIL_VALUE                                                         
%FORMAT(5E16.8)                                                                 
  2.10643878E+00  2.05163542E+00  1.90607489E+00  1.93801443E+00  1.88879613E+00
  2.14762857E+00  2.15024656E+00  2.01027109E+00  1.94796281E+00  1.90031530E+00
  2.05390434E+00  1.91427794E+00  1.91270715E+00  1.96314718E+00  1.92317913E+00
  1.94621748E+00  1.91218355E+00  1.88443280E+00  1.91602327E+00  1.90293330E+00
  1.91253261E+00  1.87204096E+00  1.92440086E+00  1.97012850E+00  1.92370273E+00
  2.20714432E+00  2.17049239E+00  1.87291362E+00  1.95494413E+00  2.12546287E+00
  2.09980652E+00  2.21831443E+00  2.04762116E+00  1.84045049E+00  2.19248355E+00
  2.11184930E+00  2.11097664E+00  2.14570870E+00  2.09474507E+00  2.02580453E+00
  2.04622489E+00  2.04098890E+00  2.22180509E+00  2.02091761E+00  1.89455572E+00
  1.88024401E+00  2.00922390E+00
%FLAG DIHEDRAL_FORCE_CONSTANT                                                   
%FORMAT(5E16.8)                                                                 
  5.30000000E-01  0.00000000E+00  1.50000000E-01  5.00000000E-01  3.83333333E-01
  1.55555556E-01  2.50000000E+00  2.00000000E+00  0.00000000E+00  8.00000000E-01
  8.00000000E-02  7.00000000E-02  1.00000000E-01  1.50000000E+00  1.00000000E-01
  3.83000000E-01  6.50000000E-01  2.50000000E-01  1.60000000E-01  2.00000000E-01
  2.50000000E-01  1.80000000E-01  1.17500000E+00  1.44000000E-01  0.00000000E+00
  1.70000000E+00  3.00000000E-01  4.75000000E+00  3.62500000E+00  4.80000000E+00
  6.13000000E-01  1.05000000E+00  1.66666667E-01  1.05000000E+01  1.10000000E+00
%FLAG DIHEDRAL_PERIODICITY                                                      
%FORMAT(5E16.8)                                                                 
  1.00000000E+00  2.00000000E+00  3.00000000E+00  4.00000000E+00  3.00000000E+00
  3.00000000E+00  2.00000000E+00  1.00000000E+00  2.00000000E+00  1.00000000E+00
  3.00000000E+00  2.00000000E+00  4.00000000E+00  1.00000000E+00  2.00000000E+00
  3.00000000E+00  2.00000000E+00  1.00000000E+00  3.00000000E+00  1.00000000E+00
  2.00000000E+00  3.00000000E+00  2.00000000E+00  3.00000000E+00  3.00000000E+00
  2.00000000E+00  2.00000000E+00  2.00000000E+00  2.00000000E+00  2.00000000E+00
  2.00000000E+00  2.00000000E+00  3.00000000E+00  2.00000000E+00  2.00000000E+00
%FLAG DIHEDRAL_PHASE                                                            
%FORMAT(5E16.8)                                                                 
  0.00000000E+00  0.00000000E+00  3.14159400E+00  3.14159400E+00  0.00000000E+00
  0.00000000E+00  3.14159400E+00  0.00000000E+00  3.14159400E+00  0.00000000E+00
  3.14159400E+00  0.00000000E+00  0.00000000E+00  3.14159400E+00  3.14159400E+00
  0.00000000E+00  0.00000000E+00  0.00000000E+00  0.00000000E+00  3.14159400E+00
  3.14159400E+00  0.00000000E+00  0.00000000E+00  0.00000000E+00  0.00000000E+00
  3.14159400E+00  3.14159400E+00  3.14159400E+00  3.14159400E+00  3.14159400E+00
  3.14159400E+00  3.14159400E+00  0.00000000E+00  3.14159400E+00  3.14159400E+00
%FLAG SCEE_SCALE_FACTOR                                                         
%FORMAT(5E16.8)                                                                 
  1.20000000E+00  1.20000000E+00  1.20000000E+00  1.20000000E+00  1.20000000E+00
  1.20000000E+00  1.20000000E+00  1.20000000E+00  1.20000000E+00  1.20000000E+00
  1.20000000E+00  1.20000000E+00  1.20000000E+00  1.20000000E+00  1.20000000E+00
  1.20000000E+00  1.20000000E+00  1.20000000E+00  1.20000000E+00  1.20000000E+00
  1.20000000E+00  1.20000000E+00  1.20000000E+00  1.20000000E+00  1.20000000E+00
  1.20000000E+00  1.20000000E+00  1.20000000E+00  1.20000000E+00  1.20000000E+00
  1.20000000E+00  1.20000000E+00  1.20000000E+00  0.00000000E+00  0.00000000E+00
%FLAG SCNB_SCALE_FACTOR                                                         
%FORMAT(5E16.8)                                                                 
  2.00000000E+00  2.00000000E+00  2.00000000E+00  2.00000000E+00  2.00000000E+00
  2.00000000E+00  2.00000000E+00  2.00000000E+00  2.00000000E+00  2.00000000E+00
  2.00000000E+00  2.00000000E+00  2.00000000E+00  2.00000000E+00  2.00000000E+00
  2.00000000E+00  2.00000000E+00  2.00000000E+00  2.00000000E+00  2.00000000E+00
  2.00000000E+00  2.00000000E+00  2.00000000E+00  2.00000000E+00  2.00000000E+00
  2.00000000E+00  2.00000000E+00  2.00000000E+00  2.00000000E+00  2.00000000E+00
  2.00000000E+00  2.00000000E+00  2.00000000E+00  0.00000000E+00  0.00000000E+00
%FLAG SOLTY                                                                     
%FORMAT(5E16.8)                                                                 
  0.00000000E+00  0.00000000E+00  0.00000000E+00  0.00000000E+00  0.00000000E+00
  0.00000000E+00  0.00000000E+00  0.00000000E+00  0.00000000E+00  0.00000000E+00
  0.00000000E+00  0.00000000E+00  0.00000000E+00  0.00000000E+00  0.00000000E+00
  0.00000000E+00  0.00000000E+00  0.00000000E+00  0.00000000E+00
%FLAG LENNARD_JONES_ACOEF                                                       
%FORMAT(5E16.8)                                                                 
  6.96551276E+05  5.17507491E+05  3.76435470E+05  8.11497350E+05  5.99897901E+05
  9.44293233E+05  8.43969952E+05  6.30925504E+05  9.84684600E+05  1.02073671E+06
  8.53193737E+05  6.37913494E+05  9.95480466E+05  1.03184851E+06  1.04308023E+06
  4.46121722E+05  3.27367585E+05  5.18220260E+05  5.42502534E+05  5.48478208E+05
  2.83662575E+05  5.92438683E+05  4.37717034E+05  6.89296946E+05  7.18991463E+05
  7.26877088E+05  3.78207390E+05  5.03152404E+05  8.20152428E+05  6.04208667E+05
  9.53586341E+05  9.96191545E+05  1.00713741E+06  5.22690526E+05  6.96017793E+05
  9.62429652E+05  7.69642101E+05  5.74782316E+05  8.97750460E+05  9.31115275E+05
  9.41257953E+05  4.94433451E+05  6.55497149E+05  9.08092643E+05  8.49322032E+05
  1.71458823E+03  9.87857350E+02  1.88178855E+03  2.23577481E+03  2.26409483E+03
  9.46795083E+02  1.36475542E+03  1.82491629E+03  2.01475241E+03  1.34728399E-01
  5.63013422E+04  3.86646725E+04  6.43853349E+04  6.97998263E+04  7.06006146E+04
  3.44374471E+04  4.69084694E+04  6.42436358E+04  6.34160397E+04  5.24570081E+01
  3.39005767E+03  8.12662403E+04  5.68021765E+04  9.33217616E+04  1.00235148E+05
  1.01372942E+05  5.02224902E+04  6.80216136E+04  9.33839501E+04  9.11435380E+04
  9.47421632E+01  5.22955465E+03  7.94617769E+03  2.25372434E+02  1.15813907E+02
  2.40872585E+02  3.03553352E+02  3.07630260E+02  1.16469347E+02  1.74176419E+02
  2.29317644E+02  2.72118326E+02  2.61760843E-03  4.36660257E+00  8.80612241E+00
  1.10360882E-05  3.85565555E+04  2.59855087E+04  4.38980798E+04  4.80619274E+04
  4.86195279E+04  2.33261683E+04  3.19666529E+04  4.36678042E+04  4.36276732E+04
  2.81680913E+01  2.16218723E+03  3.39005767E+03  2.07292270E+00  1.35510742E+03
  5.22195041E+04  3.59538577E+04  5.97535946E+04  6.46910138E+04  6.54320462E+04
  3.19887757E+04  4.35368956E+04  5.96470418E+04  5.87815925E+04  5.02830284E+01
  3.17496391E+03  4.88692384E+03  4.25484751E+00  2.02982706E+03  2.97255425E+03
%FLAG LENNARD_JONES_BCOEF                                                       
%FORMAT(5E16.8)                                                                 
  5.24668528E+02  4.98871431E+02  4.69350655E+02  6.48597119E+02  6.15165511E+02
  8.01323529E+02  5.90251928E+02  5.62969425E+02  7.30206155E+02  6.63431737E+02
  5.95658566E+02  5.68167388E+02  7.36907417E+02  6.69494459E+02  6.75612247E+02
  3.88758656E+02  3.67361018E+02  4.79881022E+02  4.38146883E+02  4.42179058E+02
  2.87011518E+02  4.76608379E+02  4.51916854E+02  5.88797748E+02  5.36620538E+02
  5.41546250E+02  3.52573684E+02  4.32634597E+02  6.82622272E+02  6.46321327E+02
  8.43016687E+02  7.68900328E+02  7.75965878E+02  5.04545572E+02  6.19405188E+02
  8.86629877E+02  5.44830041E+02  5.19385932E+02  6.73934129E+02  6.12468585E+02
  6.18067719E+02  4.04310927E+02  4.95260330E+02  7.09588248E+02  5.65406768E+02
  1.46824710E+01  1.22938581E+01  1.76168249E+01  1.71355763E+01  1.73073921E+01
  1.01016461E+01  1.29026271E+01  1.81620725E+01  1.57231024E+01  7.34107347E-02
  1.01040256E+02  9.23664132E+01  1.23751804E+02  1.14981426E+02  1.16065835E+02
  7.31636661E+01  9.08431526E+01  1.29412081E+02  1.05935811E+02  1.73959275E+00
  1.67944276E+01  1.21392023E+02  1.11953944E+02  1.48987394E+02  1.37787728E+02
  1.39078880E+02  8.83545880E+01  1.09393126E+02  1.56025608E+02  1.27000718E+02
  2.33785449E+00  2.08590256E+01  2.57122925E+01  4.40751799E+00  3.48534600E+00
  5.21867651E+00  5.22789272E+00  5.28230309E+00  2.93355636E+00  3.81654050E+00
  5.33073545E+00  4.78443613E+00  8.47240681E-03  4.15568027E-01  5.90150328E-01
  4.55498033E-04  8.36149973E+01  7.57220777E+01  1.02183511E+02  9.54115851E+01
  9.63175726E+01  6.02145835E+01  7.49920368E+01  1.06694109E+02  8.78666889E+01
  1.27474859E+00  1.34124560E+01  1.67944276E+01  2.86326700E-01  1.06181419E+01
  9.12729468E+01  8.35449674E+01  1.11822890E+02  1.03827676E+02  1.04805976E+02
  6.61407978E+01  8.20891825E+01  1.16962018E+02  9.56653235E+01  1.59752321E+00
  1.52447987E+01  1.89134207E+01  3.84771529E-01  1.21893856E+01  1.38359132E+01
%FLAG BONDS_INC_HYDROGEN                                                        
%FORMAT(10I8)                                                                   
       6      66       5       9      69       7       9      72       7      12
      75       8      12      78       8      12      81       8      15      84
      11      21      87      11      24      90      13      27      93      11
      30      96      13      33      99      15      39     102      19      51
     105      24      51     108      24      57     111      25
%FLAG BONDS_WITHOUT_HYDROGEN                                                    
%FORMAT(10I8)                                                                   
       0       3       1       0       6       2       0      15       3       6
       9       4       9      12       6      15      18       9      15      21
      10      18      33       9      21      24      12      21      27      10
      27      30      12      27      33      10      33      36      14      36
      39      16      36      63      17      39      42      18      42      45
      20      45      48      21      45      63      21      48      51      22
      48      54      23      54      57      23      57      60      23      60
      63      23
%FLAG ANGLES_INC_HYDROGEN                                                       
%FORMAT(10I8)                                                                   
       0       6      66       2       0      15      84       5       6       9
      69      10       6       9      72      10       9       6      66      11
       9      12      75      12       9      12      78      12       9      12
      81      12      12       9      69      13      12       9      72      13
      15      21      87      17      18      15      84      19      18      33
      99      21      21      15      84      17      21      24      90      22
      21      27      93      17      24      21      87      23      27      21
      87      17      27      30      96      22      27      33      99      25
      30      27      93      23      33      27      93      17      36      33
      99      28      36      39     102      30      42      39     102      35
      48      51     105      40      48      51     108      40      54      57
     111      44      60      57     111      44      69       9      72      45
      75      12      78      46      75      12      81      46      78      12
      81      46     105      51     108      47
%FLAG ANGLES_WITHOUT_HYDROGEN                                                   
%FORMAT(10I8)                                                                   
       0       6       9       1       0      15      18       3       0      15
      21       4       3       0       6       6       3       0      15       7
       6       0      15       8       6       9      12       9      15      18
      33      14      15      21      24      15      15      21      27      16
      18      15      21      18      18      33      27      18      18      33
      36      20      21      27      30      15      21      27      33      16
      24      21      27      15      27      33      36      24      30      27
      33      15      33      36      39      26      33      36      63      27
      36      39      42      29      36      63      45      31      36      63
      60      32      39      36      63      33      39      42      45      34
      42      45      48      36      42      45      63      36      45      48
      51      37      45      48      54      38      45      63      60      38
      48      45      63      39      48      54      57      41      51      48
      54      42      54      57      60      43      57      60      63      41
%FLAG DIHEDRALS_INC_HYDROGEN                                                    
%FORMAT(10I8)                                                                   
       0       6       9      69       2       0       6       9      72       2
       0      15      21      87       6       3       0       6      66       8
       3       0      -6      66       7       3       0      15      84      10
       3       0     -15      84       2       3       0     -15      84      11
       6       0      15      84       9       6       9      12      75       6
       6       9      12      78       6       6       9      12      81       6
      12       9       6      66       2      15       0       6      66       7
      15      18      33      99       5      15      21      24      90      18
      15      21     -24      90      19      15      21      27      93       6
      18      15      21      87      18      18      15     -21      87      25
      18      33      27      93      18      18      33     -27      93      25
      21      27      30      96      18      21      27     -30      96      19
      21      27      33      99       6      24      21      15      84      18
      24      21     -15      84      25      24      21      27      93      18
      24      21     -27      93      25      27      21      15      84       6
      27      21      24      90      18      27      21     -24      90      19
      30      27      21      87      18      30      27     -21      87      25
      30      27      33      99       6      33      18      15      84       5
      33      27      21      87       6      33      27      30      96      18
      33      27     -30      96      19      33      36      39     102      26
      36      33      27      93       6      39      36      33      99       2
      45      42      39     102      28      45      48      51     105      32
      45      48      51     108      32      48      54      57     111      30
      54      48      51     105      32      54      48      51     108      32
      63      36      33      99       2      63      36      39     102      26
      63      60      57     111      30      66       6       9      69       2
      66       6       9      72       2      69       9      12      75       6
      69       9      12      78       6      69       9      12      81       6
      72       9      12      75       6      72       9      12      78       6
      72       9      12      81       6      84      15      21      87       6
      87      21      24      90      33      87      21      27      93       6
      93      27      30      96      33      93      27      33      99       6
       0       9      -6     -66      35     102      36     -39     -42      35
      48     105     -51    -108      35     111      54     -57     -60      35
%FLAG DIHEDRALS_WITHOUT_HYDROGEN                                                
%FORMAT(10I8)                                                                   
       0       6       9      12       1       0       6      -9      12       2
       0       6      -9      12       3       0       6      -9      12       4
       0      15      18      33       5       0      15      21      24       6
       0      15      21      27       6       3       0       6       9       7
       3       0      15      18       9       3       0      15      21       9
       6       0      15      18       9       6       0      15      21      12
       6       0     -15      21      13      15       0       6       9      14
      15       0      -6       9       2      15      18     -33      27      15
      15      18     -33      27      16      15      18      33      36      17
      15      18     -33      36      16      15      21      27      30       6
      15      21     -27      33      20      15      21     -27      33      21
      15      21     -27      33      22      18      15      21      24      23
      18      15     -21      24      24      18      15     -21      27       6
      18      33     -27      21       6      18      33      27      30      23
      18      33     -27      30      24      18      33      36      39       2
      18      33      36      63       2      21      15     -18      33      15
      21      15     -18      33      16      21      27      33      36       6
      24      21      27      30      23      24      21     -27      30      24
      24      21      27      33       6      27      33      36      39       2
      27      33      36      63       2      30      27      33      36       6
      33      36      39      42      26      33      36      63      45      27
      33      36      63      60      27      36      39     -42      45      28
      36      63     -45      42      29      36      63      45      48      29
      36      63      60      57      30      39      36     -63      45      31
      39      36      63      60      27      39      42      45      48      30
      39      42     -45      63      30      42      39     -36      63      26
      42      45      48      51      29      42      45      48      54      29
      42      45      63      60      29      45      48      54      57      30
      45      63     -60      57      30      48      45      63      60      29
      48      54     -57      60      30      51      48      45      63      29
      51      48      54      57      30      54      48      45      63      29
      54      57     -60      63      30       3       0      -6     -15      34
      33      63     -36     -39      35      48      63     -45     -42      35
      45      54     -48     -51      35      45      36     -63     -60      35
%FLAG EXCLUDED_ATOMS_LIST                                                       
%FORMAT(10I8)                                                                   
       2       3       4       5       6       7       8       9      10      12
      23      24      25      29      30       3       4       6       7       8
      23      29       4       5       6       7       8      23      24      25
      26      27      28      29       5       6      23      24      25      26
      27      28      23      24      25      26      27      28       7       8
       9      10      11      12      13      23      29      30      31      32
      34       8       9      10      11      12      13      14      22      29
      30      32      34       9      10      11      12      13      29      30
      31      32      33      34      10      11      12      29      30      31
      32      11      12      13      14      22      29      30      31      32
      33      34      12      13      30      32      33      34      13      14
      15      16      21      22      29      30      32      33      34      35
      14      15      16      17      20      21      22      32      34      35
      15      16      17      21      22      34      35      16      17      18
      19      21      22      35      17      18      19      20      21      22
      35      36      37      18      19      20      21      22      36      37
      38      19      20      22      36      37      20      21      22      36
      37      38      21      22      38      22      38      34      35      38
      24      25      25      26      27      28      26      27      28      27
      28      28       0      30      31      32       0      33      34       0
       0       0      37       0       0
%FLAG HBOND_ACOEF                                                               
%FORMAT(5E16.8)                                                                 

%FLAG HBOND_BCOEF                                                               
%FORMAT(5E16.8)                                                                 

%FLAG HBCUT                                                                     
%FORMAT(5E16.8)                                                                 

%FLAG AMBER_ATOM_TYPE                                                           
%FORMAT(20a4)                                                                   
c   o   ns  c3  c3  c5  os  c5  oh  c5  oh  c5  na  cc  nd  ca  ca  nv  nb  ca  
nb  ca  hn  h1  h1  hc  hc  hc  h1  h1  ho  h1  ho  h2  h5  hn  hn  h5  
%FLAG TREE_CHAIN_CLASSIFICATION                                                 
%FORMAT(20a4)                                                                   
BLA BLA BLA BLA BLA BLA BLA BLA BLA BLA BLA BLA BLA BLA BLA BLA BLA BLA BLA BLA 
BLA BLA BLA BLA BLA BLA BLA BLA BLA BLA BLA BLA BLA BLA BLA BLA BLA BLA 
%FLAG JOIN_ARRAY                                                                
%FORMAT(10I8)                                                                   
       0       0       0       0       0       0       0       0       0       0
       0       0       0       0       0       0       0       0       0       0
       0       0       0       0       0       0       0       0       0       0
       0       0       0       0       0       0       0       0
%FLAG IROTAT                                                                    
%FORMAT(10I8)                                                                   
       0       0       0       0       0       0       0       0       0       0
       0       0       0       0       0       0       0       0       0       0
       0       0       0       0       0       0       0       0       0       0
       0       0       0       0       0       0       0       0
%FLAG RADIUS_SET                                                                
%FORMAT(1a80)                                                                   
modified Bondi radii (mbondi)                                                   
%FLAG RADII                                                                     
%FORMAT(5E16.8)                                                                 
  1.70000000E+00  1.50000000E+00  1.55000000E+00  1.70000000E+00  1.70000000E+00
  1.70000000E+00  1.50000000E+00  1.70000000E+00  1.50000000E+00  1.70000000E+00
  1.50000000E+00  1.70000000E+00  1.55000000E+00  1.70000000E+00  1.55000000E+00
  1.70000000E+00  1.70000000E+00  1.55000000E+00  1.55000000E+00  1.70000000E+00
  1.55000000E+00  1.70000000E+00  1.30000000E+00  1.30000000E+00  1.30000000E+00
  1.30000000E+00  1.30000000E+00  1.30000000E+00  1.30000000E+00  1.30000000E+00
  8.00000000E-01  1.30000000E+00  8.00000000E-01  1.30000000E+00  1.30000000E+00
  1.30000000E+00  1.30000000E+00  1.30000000E+00
%FLAG SCREEN                                                                    
%FORMAT(5E16.8)                                                                 
  7.20000000E-01  8.50000000E-01  7.90000000E-01  7.20000000E-01  7.20000000E-01
  7.20000000E-01  8.50000000E-01  7.20000000E-01  8.50000000E-01  7.20000000E-01
  8.50000000E-01  7.20000000E-01  7.90000000E-01  7.20000000E-01  7.90000000E-01
  7.20000000E-01  7.20000000E-01  7.90000000E-01  7.90000000E-01  7.20000000E-01
  7.90000000E-01  7.20000000E-01  8.50000000E-01  8.50000000E-01  8.50000000E-01
  8.50000000E-01  8.50000000E-01  8.50000000E-01  8.50000000E-01  8.50000000E-01
  8.50000000E-01  8.50000000E-01  8.50000000E-01  8.50000000E-01  8.50000000E-01
  8.50000000E-01  8.50000000E-01  8.50000000E-01
%FLAG IPOL                                                                      
%FORMAT(1I8)                                                                    
       0
