NEC
    38
   0.6960000   0.4960000   3.2950000   1.8650000   0.7410000   3.0830000
   0.3020000   0.0960000   4.5200000   1.2860000  -0.0430000   5.5960000
   0.5830000  -0.5070000   6.8730000  -0.3160000   0.6410000   2.1880000
   0.3330000   0.9970000   0.9490000  -0.9790000  -0.7240000   1.8730000
  -2.0990000  -0.9620000   2.7280000  -1.4350000  -0.5300000   0.4050000
  -2.8180000  -0.1720000   0.3540000  -0.5590000   0.6260000  -0.1140000
   0.2100000   0.1870000  -1.2800000   1.4450000  -0.3880000  -1.2610000
   1.8320000  -0.6520000  -2.4760000   0.8710000  -0.2640000  -3.3490000
   0.7350000  -0.2970000  -4.7470000   1.7380000  -0.8210000  -5.5440000
  -0.3790000   0.1840000  -5.2860000  -1.3410000   0.6850000  -4.5340000
  -1.2570000   0.7370000  -3.2210000  -0.1820000   0.2730000  -2.5920000
  -0.6320000  -0.0990000   4.6890000   1.7680000   0.9170000   5.7760000
   2.0380000  -0.7780000   5.3080000   1.3150000  -0.6120000   7.6740000
  -0.1680000   0.2270000   7.1620000   0.1010000  -1.4690000   6.6940000
  -1.0700000   1.3820000   2.4530000  -0.2530000  -1.5330000   1.9520000
  -1.7490000  -1.0740000   3.6230000  -1.2540000  -1.4350000  -0.1740000
  -3.3150000  -0.9310000   0.6900000  -1.1880000   1.4750000  -0.3830000
   2.0190000  -0.5940000  -0.3700000   1.6330000  -0.8380000  -6.5080000
   2.5470000  -1.1700000  -5.1380000  -2.2300000   1.0670000  -5.0130000
