%VERSION  VERSION_STAMP = V0001.000  DATE = 09/14/26  14:40:19                  
%FLAG TITLE                                                                     
%FORMAT(20a4)                                                                   
ZMA                                                                             
%FLAG POINTERS                                                                  
%FORMAT(10I8)                                                                   
      40      13      15      28      30      39      57      59       0       0
     201       1      28      39      59      25      42      13      17       0
       0       0       0       0       0       0       0       0      40       0
       0
%FLAG ATOM_NAME                                                                 
%FORMAT(20a4)                                                                   
C   C1  C2  O   C3  C4  C5  C6  C7  N   C8  N1  N2  C9  N3  N4  N5  C10 N6  C11 
C12 C13 C14 C15 O1  H   H1  H2  H3  H4  H5  H6  H7  H8  H9  H10 H11 H12 H13 H14 
%FLAG CHARGE                                                                    
%FORMAT(5E16.8)                                                                 
 -1.63089585E+00 -3.34379205E+00  2.27960973E+00 -9.04008303E+00 -3.34379205E+00
 -1.63089585E+00 -2.15569809E+00 -1.18627173E+00  3.69548244E+00 -1.48857969E+01
  1.69631391E+01 -1.39947264E+01 -1.53978435E+01  1.57149115E+01 -1.75025192E+01
 -3.81939408E+00 -1.02974217E+01  8.70114825E+00 -6.85705149E+00  9.17128359E+00
  4.08908412E+00 -3.48592599E+00 -5.03482149E+00  4.63939758E+00 -6.22838214E+00
  2.46912165E+00  2.60578890E+00  7.63514370E+00  2.60578890E+00  2.46912165E+00
  1.03320441E+00  1.03320441E+00  1.27920546E+00  1.27920546E+00  7.95950064E+00
  8.42416929E+00  8.42416929E+00  3.28001400E+00  3.00667950E+00  1.00404873E+00
%FLAG ATOMIC_NUMBER                                                             
%FORMAT(10I8)                                                                   
       6       6       6       8       6       6       6       6       6       7
       6       7       7       6       7       7       7       6       7       6
       6       6       6       6       8       1       1       1       1       1
       1       1       1       1       1       1       1       1       1       1
%FLAG MASS                                                                      
%FORMAT(5E16.8)                                                                 
  1.20100000E+01  1.20100000E+01  1.20100000E+01  1.60000000E+01  1.20100000E+01
  1.20100000E+01  1.20100000E+01  1.20100000E+01  1.20100000E+01  1.40100000E+01
  1.20100000E+01  1.40100000E+01  1.40100000E+01  1.20100000E+01  1.40100000E+01
  1.40100000E+01  1.40100000E+01  1.20100000E+01  1.40100000E+01  1.20100000E+01
  1.20100000E+01  1.20100000E+01  1.20100000E+01  1.20100000E+01  1.60000000E+01
  1.00800000E+00  1.00800000E+00  1.00800000E+00  1.00800000E+00  1.00800000E+00
  1.00800000E+00  1.00800000E+00  1.00800000E+00  1.00800000E+00  1.00800000E+00
  1.00800000E+00  1.00800000E+00  1.00800000E+00  1.00800000E+00  1.00800000E+00
%FLAG ATOM_TYPE_INDEX                                                           
%FORMAT(10I8)                                                                   
       1       1       1       2       1       1       1       3       3       4
       1       5       5       1       4       6       5       1       5       1
       1       1       1       1       7       8       8       9       8       8
      10      10      11      11      12      12      12       8       8      13
%FLAG NUMBER_EXCLUDED_ATOMS                                                     
%FORMAT(10I8)                                                                   
      13      10       9       5       7       8      11      10       9      10
      10       8       8       8       5       7       6       3       4       6
       7       6       5       4       3       1       1       1       1       1
       3       2       2       1       1       1       1       1       1       1
%FLAG NONBONDED_PARM_INDEX                                                      
%FORMAT(10I8)                                                                   
       1       2       4       7      11      16      22      29      37      46
      56      67      79       2       3       5       8      12      17      23
      30      38      47      57      68      80       4       5       6       9
      13      18      24      31      39      48      58      69      81       7
       8       9      10      14      19      25      32      40      49      59
      70      82      11      12      13      14      15      20      26      33
      41      50      60      71      83      16      17      18      19      20
      21      27      34      42      51      61      72      84      22      23
      24      25      26      27      28      35      43      52      62      73
      85      29      30      31      32      33      34      35      36      44
      53      63      74      86      37      38      39      40      41      42
      43      44      45      54      64      75      87      46      47      48
      49      50      51      52      53      54      55      65      76      88
      56      57      58      59      60      61      62      63      64      65
      66      77      89      67      68      69      70      71      72      73
      74      75      76      77      78      90      79      80      81      82
      83      84      85      86      87      88      89      90      91
%FLAG RESIDUE_LABEL                                                             
%FORMAT(20a4)                                                                   
ZMA 
%FLAG RESIDUE_POINTER                                                           
%FORMAT(10I8)                                                                   
       1
%FLAG BOND_FORCE_CONSTANT                                                       
%FORMAT(5E16.8)                                                                 
  3.54250000E+02  3.60690000E+02  3.48550000E+02  5.35510000E+02  2.43910000E+02
  2.28890000E+02  3.45250000E+02  3.26600000E+02  3.44220000E+02  4.35200000E+02
  4.04600000E+02  4.19720000E+02  3.56030000E+02  3.45930000E+02  4.17790000E+02
  3.32450000E+02  4.35200000E+02  4.04600000E+02  2.90410000E+02  3.22020000E+02
  3.86240000E+02  3.51190000E+02  3.21490000E+02  3.64600000E+02  3.68720000E+02
%FLAG BOND_EQUIL_VALUE                                                          
%FORMAT(5E16.8)                                                                 
  1.39860000E+00  1.08600000E+00  1.36440000E+00  9.72500000E-01  1.51470000E+00
  1.53540000E+00  1.09620000E+00  1.46400000E+00  1.09690000E+00  1.37300000E+00
  1.01200000E+00  1.31580000E+00  1.36290000E+00  1.37130000E+00  1.31710000E+00
  1.38300000E+00  1.37300000E+00  1.01200000E+00  1.35700000E+00  1.42740000E+00
  1.37300000E+00  1.36220000E+00  1.42790000E+00  1.08350000E+00  1.08090000E+00
%FLAG ANGLE_FORCE_CONSTANT                                                      
%FORMAT(5E16.8)                                                                 
  6.36700000E+01  6.07400000E+01  4.49000000E+01  7.88600000E+01  6.74100000E+01
  6.03300000E+01  4.36100000E+01  6.62000000E+01  4.32800000E+01  4.32700000E+01
  6.37000000E+01  4.61000000E+01  4.96000000E+01  7.24000000E+01  7.21000000E+01
  4.89000000E+01  8.73500000E+01  8.60800000E+01  7.33900000E+01  7.25300000E+01
  7.59600000E+01  7.65100000E+01  7.24000000E+01  8.81800000E+01  8.27900000E+01
  4.89000000E+01  7.18000000E+01  9.39400000E+01  6.70300000E+01  6.73400000E+01
  6.37700000E+01  7.88900000E+01  6.45700000E+01  4.52500000E+01  9.54600000E+01
  8.26200000E+01  4.38000000E+01  4.39500000E+01  5.71800000E+01  3.58000000E+01
  3.56400000E+01  4.01000000E+01
%FLAG ANGLE_EQUIL_VALUE                                                         
%FORMAT(5E16.8)                                                                 
  2.09474507E+00  2.10888224E+00  2.09230160E+00  2.09265067E+00  1.89507931E+00
  1.96209999E+00  1.93085858E+00  1.92789152E+00  1.91270715E+00  1.91427794E+00
  2.08950908E+00  2.02440827E+00  1.91619781E+00  2.10574065E+00  2.04605036E+00
  2.01812508E+00  1.83905422E+00  1.90502770E+00  2.18061530E+00  2.11411823E+00
  2.02004494E+00  1.97257197E+00  2.10574065E+00  1.95843479E+00  1.93557097E+00
  2.01812508E+00  2.04692302E+00  1.81235067E+00  2.19998847E+00  2.11656169E+00
  2.08025883E+00  2.04779569E+00  2.02824799E+00  2.12406661E+00  1.86383791E+00
  1.94656655E+00  2.12668460E+00  2.25339556E+00  2.01672882E+00  1.88024401E+00
  1.89455572E+00  2.00922390E+00
%FLAG DIHEDRAL_FORCE_CONSTANT                                                   
%FORMAT(5E16.8)                                                                 
  3.62500000E+00  2.40000000E-01  0.00000000E+00  8.55000000E-01  1.55555556E-01
  0.00000000E+00  1.05000000E+00  4.75000000E+00  1.70000000E+00  4.80000000E+00
  4.00000000E+00  1.10000000E+00  1.05000000E+01
%FLAG DIHEDRAL_PERIODICITY                                                      
%FORMAT(5E16.8)                                                                 
  2.00000000E+00  2.00000000E+00  1.00000000E+00  2.00000000E+00  3.00000000E+00
  2.00000000E+00  2.00000000E+00  2.00000000E+00  2.00000000E+00  2.00000000E+00
  2.00000000E+00  2.00000000E+00  2.00000000E+00
%FLAG DIHEDRAL_PHASE                                                            
%FORMAT(5E16.8)                                                                 
  3.14159400E+00  3.14159400E+00  0.00000000E+00  3.14159400E+00  0.00000000E+00
  0.00000000E+00  3.14159400E+00  3.14159400E+00  3.14159400E+00  3.14159400E+00
  3.14159400E+00  3.14159400E+00  3.14159400E+00
%FLAG SCEE_SCALE_FACTOR                                                         
%FORMAT(5E16.8)                                                                 
  1.20000000E+00  1.20000000E+00  1.20000000E+00  1.20000000E+00  1.20000000E+00
  1.20000000E+00  1.20000000E+00  1.20000000E+00  1.20000000E+00  1.20000000E+00
  1.20000000E+00  0.00000000E+00  0.00000000E+00
%FLAG SCNB_SCALE_FACTOR                                                         
%FORMAT(5E16.8)                                                                 
  2.00000000E+00  2.00000000E+00  2.00000000E+00  2.00000000E+00  2.00000000E+00
  2.00000000E+00  2.00000000E+00  2.00000000E+00  2.00000000E+00  2.00000000E+00
  2.00000000E+00  0.00000000E+00  0.00000000E+00
%FLAG SOLTY                                                                     
%FORMAT(5E16.8)                                                                 
  0.00000000E+00  0.00000000E+00  0.00000000E+00  0.00000000E+00  0.00000000E+00
  0.00000000E+00  0.00000000E+00  0.00000000E+00  0.00000000E+00  0.00000000E+00
  0.00000000E+00  0.00000000E+00  0.00000000E+00  0.00000000E+00  0.00000000E+00
  0.00000000E+00  0.00000000E+00
%FLAG LENNARD_JONES_ACOEF                                                       
%FORMAT(5E16.8)                                                                 
  6.96551276E+05  5.92438683E+05  5.03152404E+05  8.43969952E+05  7.18991463E+05
  1.02073671E+06  8.11497350E+05  6.89296946E+05  9.84684600E+05  9.44293233E+05
  7.69642101E+05  6.55497149E+05  9.31115275E+05  8.97750460E+05  8.49322032E+05
  8.20152428E+05  6.96017793E+05  9.96191545E+05  9.53586341E+05  9.08092643E+05
  9.62429652E+05  4.46121722E+05  3.78207390E+05  5.42502534E+05  5.18220260E+05
  4.94433451E+05  5.22690526E+05  2.83662575E+05  7.52549148E+04  6.30298721E+04
  9.27554496E+04  8.64679274E+04  8.43518904E+04  8.65595848E+04  4.65732396E+04
  6.90855956E+03  2.25372434E+02  1.74176419E+02  3.03553352E+02  2.40872585E+02
  2.72118326E+02  2.29317644E+02  1.16469347E+02  8.53132435E+00  1.10360882E-05
  8.12662403E+04  6.80216136E+04  1.00235148E+05  9.33217616E+04  9.11435380E+04
  9.33839501E+04  5.02224902E+04  7.41026906E+03  8.80612241E+00  7.94617769E+03
  5.63013422E+04  4.69084694E+04  6.97998263E+04  6.43853349E+04  6.34160397E+04
  6.42436358E+04  3.44374471E+04  4.88692384E+03  4.36660257E+00  5.22955465E+03
  3.39005767E+03  1.71458823E+03  1.36475542E+03  2.23577481E+03  1.88178855E+03
  2.01475241E+03  1.82491629E+03  9.46795083E+02  9.04434904E+01  2.61760843E-03
  9.47421632E+01  5.24570081E+01  1.34728399E-01  6.27751680E+04  5.24591488E+04
  7.75673747E+04  7.19825646E+04  7.05112106E+04  7.19580450E+04  3.86549715E+04
  5.62610481E+03  6.05535196E+00  6.02863188E+03  3.94664935E+03  6.76796831E+01
  4.56536476E+03
%FLAG LENNARD_JONES_BCOEF                                                       
%FORMAT(5E16.8)                                                                 
  5.24668528E+02  4.76608379E+02  4.32634597E+02  5.90251928E+02  5.36620538E+02
  6.63431737E+02  6.48597119E+02  5.88797748E+02  7.30206155E+02  8.01323529E+02
  5.44830041E+02  4.95260330E+02  6.12468585E+02  6.73934129E+02  5.65406768E+02
  6.82622272E+02  6.19405188E+02  7.68900328E+02  8.43016687E+02  7.09588248E+02
  8.86629877E+02  3.88758656E+02  3.52573684E+02  4.38146883E+02  4.79881022E+02
  4.04310927E+02  5.04545572E+02  2.87011518E+02  1.09570372E+02  9.87712192E+01
  1.24325688E+02  1.34516705E+02  1.14599119E+02  1.40899023E+02  7.98066064E+01
  2.10929191E+01  4.40751799E+00  3.81654050E+00  5.22789272E+00  5.21867651E+00
  4.78443613E+00  5.33073545E+00  2.93355636E+00  5.44840215E-01  4.55498033E-04
  1.21392023E+02  1.09393126E+02  1.37787728E+02  1.48987394E+02  1.27000718E+02
  1.56025608E+02  8.83545880E+01  2.32899892E+01  5.90150328E-01  2.57122925E+01
  1.01040256E+02  9.08431526E+01  1.14981426E+02  1.23751804E+02  1.05935811E+02
  1.29412081E+02  7.31636661E+01  1.89134207E+01  4.15568027E-01  2.08590256E+01
  1.67944276E+01  1.46824710E+01  1.29026271E+01  1.71355763E+01  1.76168249E+01
  1.57231024E+01  1.81620725E+01  1.01016461E+01  2.14252117E+00  8.47240681E-03
  2.33785449E+00  1.73959275E+00  7.34107347E-02  1.00073628E+02  9.01089277E+01
  1.13692208E+02  1.22733283E+02  1.04776275E+02  1.28466555E+02  7.27065100E+01
  1.90347353E+01  4.59018960E-01  2.10068861E+01  1.69967767E+01  1.85338491E+00
  1.71467049E+01
%FLAG BONDS_INC_HYDROGEN                                                        
%FORMAT(10I8)                                                                   
       0      75       2       3      78       2       9      81       4      12
      84       2      15      87       2      21      90       7      21      93
       7      24      96       9      24      99       9      27     102      11
      42     105      18      42     108      18      63     111      24      66
     114      24      69     117      25
%FLAG BONDS_WITHOUT_HYDROGEN                                                    
%FORMAT(10I8)                                                                   
       0      18       1       0       3       1       3       6       1       6
      12       1       6       9       3      12      15       1      15      18
       1      18      21       5      21      24       6      24      27       8
      27      30      10      30      33      12      30      36      13      33
      51      14      36      39      15      39      45      16      39      42
      17      45      48      19      45      51      16      48      57      12
      51      54      15      54      57      13      57      60      20      60
      63      21      60      72      22      63      66      23      66      69
      21      69      72      22
%FLAG ANGLES_INC_HYDROGEN                                                       
%FORMAT(10I8)                                                                   
       0       3      78       3       3       0      75       3       6       3
      78       3       6      12      84       3       6       9      81       5
      12      15      87       3      15      12      84       3      18       0
      75       3      18      15      87       3      18      21      90       7
      18      21      93       7      21      24      96       9      21      24
      99       9      24      21      90      10      24      21      93      10
      24      27     102      12      27      24      96      13      27      24
      99      13      30      27     102      16      39      42     105      26
      39      42     108      26      60      63     111      34      63      66
     114      37      66      63     111      37      66      69     117      38
      69      66     114      34      72      69     117      39      90      21
      93      40      96      24      99      41     105      42     108      42
%FLAG ANGLES_WITHOUT_HYDROGEN                                                   
%FORMAT(10I8)                                                                   
       0      18      15       1       0      18      21       2       0       3
       6       1       3       0      18       1       3       6      12       1
       3       6       9       4       6      12      15       1       9       6
      12       4      12      15      18       1      15      18      21       2
      18      21      24       6      21      24      27       8      24      27
      30      11      27      30      33      14      27      30      36      15
      30      33      51      17      30      36      39      18      33      30
      36      19      33      51      45      20      33      51      54      21
      36      39      45      22      36      39      42      23      39      45
      48      24      39      45      51      25      42      39      45      27
      45      48      57      28      45      51      54      22      48      45
      51      24      48      57      54      19      48      57      60      29
      51      54      57      18      54      57      60      30      57      60
      63      31      57      60      72      32      60      63      66      33
      60      72      69      35      63      60      72      36      63      66
      69      33      66      69      72      36
%FLAG DIHEDRALS_INC_HYDROGEN                                                    
%FORMAT(10I8)                                                                   
       0      18      15      87       1       0      18      21      90       3
       0      18      21      93       3       3       6      12      84       1
       3       6       9      81       4      75       0       3       6       1
       6      12      15      87       1       9       6       3      78       1
       9       6      12      84       1      12       6       3      78       1
      12       6       9      81       4      75       0      18      15       1
      15      18      21      90       3      15      18      21      93       3
      18       0       3      78       1      18      15      12      84       1
      18      21      24      96       5      18      21      24      99       5
      75       0      18      21       1      21      18      15      87       1
      21      24      27     102       6      27      24      21      90       5
      27      24      21      93       5      30      27      24      96       6
      30      27      24      99       6      33      30      27     102       7
      36      30      27     102       7      36      39      42     105       7
      36      39      42     108       7      45      39      42     105       7
      45      39      42     108       7      57      60      63     111      11
      60      63      66     114      11      60      72      69     117       7
      63      66      69     117      11      69      66      63     111      11
      72      60      63     111      11      72      69      66     114      11
      75       0       3      78       1      84      12      15      87       1
      90      21      24      96       5      90      21      24      99       5
      93      21      24      96       5      93      21      24      99       5
      96      24      27     102       6      99      24      27     102       6
     111      63      66     114      11     114      66      69     117      11
      75       0     -18      -3      12       0       6      -3     -78      12
       6      15     -12     -84      12      12      18     -15     -87      12
      24      30     -27    -102      12      39     105     -42    -108      12
      60      66     -63    -111      12      69      63     -66    -114      12
      66     117     -69     -72      12
%FLAG DIHEDRALS_WITHOUT_HYDROGEN                                                
%FORMAT(10I8)                                                                   
       0      18      15      12       1       0      18      21      24       2
       0       3      -6      12       1       0       3       6       9       1
       3       0      18      15       1       3       0      18      21       1
       3       6     -12      15       1      18       0       3       6       1
       6      12     -15      18       1       9       6      12      15       1
      12      15      18      21       1      15      18      21      24       2
      18      21      24      27       5      21      24      27      30       6
      24      27      30      33       7      24      27      30      36       7
      27      30      33      51       8      27      30      36      39       8
      30      33      51      45       8      30      33      51      54       8
      30      36     -39      45       8      30      36      39      42       8
      33      30      36      39       8      33      51     -45      39       9
      33      51      45      48       9      33      51      54      57       8
      36      30      33      51       8      36      39      45      48       9
      36      39     -45      51       9      39      45      48      57      10
      39      45      51      54       9      42      39      45      48       9
      42      39      45      51       9      45      48     -57      54       8
      45      48      57      60       8      45      51     -54      57       8
      48      45     -51      54       9      48      57     -54      51       8
      48      57      60      63      11      48      57      60      72      11
      51      45     -48      57      10      51      54      57      60       8
      54      57      60      63      11      54      57      60      72      11
      57      60      63      66      11      57      60      72      69       7
      60      63     -66      69      11      60      72     -69      66       7
      63      60     -72      69       7      63      66     -69      72      11
      66      63     -60      72      11       3      12      -6      -9      12
       0      15     -18     -21      12      36      33     -30     -27      13
      45      36     -39     -42      12      39      51     -45     -48      12
      45      54     -51     -33      12      60      54     -57     -48      12
      57      63     -60     -72      12
%FLAG EXCLUDED_ATOMS_LIST                                                       
%FORMAT(10I8)                                                                   
       2       3       4       5       6       7       8       9      26      27
      30      31      32       3       4       5       6       7       8      26
      27      28      29       4       5       6       7      26      27      28
      29      30       5       6      27      28      29       6       7       8
      27      28      29      30       7       8       9      26      29      30
      31      32       8       9      10      26      27      29      30      31
      32      33      34       9      10      11      26      30      31      32
      33      34      35      10      11      12      13      31      32      33
      34      35      11      12      13      14      18      31      32      33
      34      35      12      13      14      15      16      18      19      33
      34      35      13      14      16      17      18      19      20      35
      14      15      16      17      18      35      36      37      15      16
      17      18      19      20      36      37      16      17      18      36
      37      17      18      19      20      21      36      37      18      19
      20      21      22      25      19      20      21      20      21      22
      25      21      22      23      24      25      38      22      23      24
      25      38      39      40      23      24      25      38      39      40
      24      25      38      39      40      25      38      39      40      38
      39      40      27       0       0      30       0      32      33      34
      33      34      34      35      35       0      37       0      39      40
       0
%FLAG HBOND_ACOEF                                                               
%FORMAT(5E16.8)                                                                 

%FLAG HBOND_BCOEF                                                               
%FORMAT(5E16.8)                                                                 

%FLAG HBCUT                                                                     
%FORMAT(5E16.8)                                                                 

%FLAG AMBER_ATOM_TYPE                                                           
%FORMAT(20a4)                                                                   
ca  ca  ca  oh  ca  ca  ca  c3  c3  nu  cc  nd  nc  cd  nv  na  nd  cd  nc  cc  
cc  cd  cd  cc  os  ha  ha  ho  ha  ha  hc  hc  h1  h1  hn  hn  hn  ha  ha  h4  
%FLAG TREE_CHAIN_CLASSIFICATION                                                 
%FORMAT(20a4)                                                                   
BLA BLA BLA BLA BLA BLA BLA BLA BLA BLA BLA BLA BLA BLA BLA BLA BLA BLA BLA BLA 
BLA BLA BLA BLA BLA BLA BLA BLA BLA BLA BLA BLA BLA BLA BLA BLA BLA BLA BLA BLA 
%FLAG JOIN_ARRAY                                                                
%FORMAT(10I8)                                                                   
       0       0       0       0       0       0       0       0       0       0
       0       0       0       0       0       0       0       0       0       0
       0       0       0       0       0       0       0       0       0       0
       0       0       0       0       0       0       0       0       0       0
%FLAG IROTAT                                                                    
%FORMAT(10I8)                                                                   
       0       0       0       0       0       0       0       0       0       0
       0       0       0       0       0       0       0       0       0       0
       0       0       0       0       0       0       0       0       0       0
       0       0       0       0       0       0       0       0       0       0
%FLAG RADIUS_SET                                                                
%FORMAT(1a80)                                                                   
modified Bondi radii (mbondi)                                                   
%FLAG RADII                                                                     
%FORMAT(5E16.8)                                                                 
  1.70000000E+00  1.70000000E+00  1.70000000E+00  1.50000000E+00  1.70000000E+00
  1.70000000E+00  1.70000000E+00  1.70000000E+00  1.70000000E+00  1.55000000E+00
  1.70000000E+00  1.55000000E+00  1.55000000E+00  1.70000000E+00  1.55000000E+00
  1.55000000E+00  1.55000000E+00  1.70000000E+00  1.55000000E+00  1.70000000E+00
  1.70000000E+00  1.70000000E+00  1.70000000E+00  1.70000000E+00  1.50000000E+00
  1.30000000E+00  1.30000000E+00  8.00000000E-01  1.30000000E+00  1.30000000E+00
  1.30000000E+00  1.30000000E+00  1.30000000E+00  1.30000000E+00  1.30000000E+00
  1.30000000E+00  1.30000000E+00  1.30000000E+00  1.30000000E+00  1.30000000E+00
%FLAG SCREEN                                                                    
%FORMAT(5E16.8)                                                                 
  7.20000000E-01  7.20000000E-01  7.20000000E-01  8.50000000E-01  7.20000000E-01
  7.20000000E-01  7.20000000E-01  7.20000000E-01  7.20000000E-01  7.90000000E-01
  7.20000000E-01  7.90000000E-01  7.90000000E-01  7.20000000E-01  7.90000000E-01
  7.90000000E-01  7.90000000E-01  7.20000000E-01  7.90000000E-01  7.20000000E-01
  7.20000000E-01  7.20000000E-01  7.20000000E-01  7.20000000E-01  8.50000000E-01
  8.50000000E-01  8.50000000E-01  8.50000000E-01  8.50000000E-01  8.50000000E-01
  8.50000000E-01  8.50000000E-01  8.50000000E-01  8.50000000E-01  8.50000000E-01
  8.50000000E-01  8.50000000E-01  8.50000000E-01  8.50000000E-01  8.50000000E-01
%FLAG IPOL                                                                      
%FORMAT(1I8)                                                                    
       0
