ZMA
    40
   1.6420000 103.0100000  55.7990000   1.3650000 104.3640000  55.6720000
   0.1430000 104.7470000  55.1480000  -0.1740000 106.1290000  54.9980000
  -0.7910000 103.7770000  54.7640000  -0.5150000 102.4240000  54.8580000
   0.6820000 102.0420000  55.4110000   0.9900000 100.5800000  55.5100000
   1.9100000 100.3800000  54.3160000   2.3130000  99.0160000  54.2020000
   1.4570000  98.1160000  53.5180000   1.8680000  96.8860000  53.3500000
   0.2830000  98.6170000  53.1170000  -0.5200000  97.7590000  52.4980000
  -1.7310000  98.2890000  52.0640000  -0.1180000  96.5010000  52.2980000
  -0.7810000  95.4710000  51.7410000   1.0480000  96.0690000  52.7200000
   1.2050000  94.8120000  52.4130000   0.0480000  94.4730000  51.8090000
  -0.2690000  93.2320000  51.3250000   0.4580000  92.0960000  51.1450000
  -0.4620000  91.1820000  50.6770000  -1.6900000  91.7760000  50.6020000
  -1.5730000  93.0240000  51.0240000   2.4590000 102.7360000  56.1490000
   1.9870000 105.0020000  55.9390000  -0.2950000 106.3040000  54.1750000
  -1.6020000 104.0490000  54.4000000  -1.1460000 101.7900000  54.6030000
   0.1840000 100.0490000  55.4190000   1.4500000 100.3780000  56.3390000
   2.6970000 100.9360000  54.4230000   1.4430000 100.6420000  53.5070000
   3.0560000  98.7470000  54.5390000  -1.8020000  99.1330000  51.9150000
  -2.4080000  97.7720000  51.9440000   1.3680000  91.9700000  51.2890000
  -0.2740000  90.3040000  50.4360000  -2.4770000  91.3680000  50.3180000
