PG2
    56
   6.9680000   0.5560000  -3.0050000   6.1990000  -0.2370000  -1.9600000
   6.5040000   0.2610000  -0.5470000   5.8410000  -0.5770000   0.5510000
   4.3090000  -0.6550000   0.4960000   3.6020000   0.7030000   0.5720000
   4.0030000   1.3790000   1.7560000   2.1020000   0.5300000   0.5280000
   1.2410000   0.7410000   1.5400000  -0.2630000   0.5790000   1.5400000
  -0.8710000   1.9610000   1.7750000  -0.7470000   2.6030000   2.8130000
  -1.6290000   2.4710000   0.5770000  -1.1600000   1.5000000  -0.4970000
  -2.0220000   1.4780000  -1.6140000  -0.9720000   0.1520000   0.2290000
  -2.2720000  -0.6180000   0.5710000  -2.9470000  -1.2380000  -0.6190000
  -4.2250000  -1.0800000  -1.0020000  -5.2800000  -0.2140000  -0.3700000
  -6.2920000  -0.9980000   0.4680000  -7.1490000  -1.9560000  -0.3560000
  -8.2630000  -2.6570000   0.4260000  -8.3190000  -2.4220000   1.6640000
  -9.0010000  -3.3990000  -0.2840000   6.7050000   1.6170000  -2.9630000
   6.7340000   0.1860000  -4.0080000   8.0480000   0.4630000  -2.8520000
   5.1280000  -0.1490000  -2.1720000   6.4630000  -1.2980000  -2.0460000
   7.5890000   0.2340000  -0.3840000   6.2070000   1.3110000  -0.4500000
   6.2380000  -1.5990000   0.5040000   6.1470000  -0.1770000   1.5260000
   3.9900000  -1.2720000   1.3480000   3.9980000  -1.1920000  -0.4070000
   3.8920000   1.3300000  -0.2780000   3.5090000   2.2160000   1.7820000
   1.7320000   0.1990000  -0.4390000   1.6430000   1.0450000   2.5090000
  -0.5440000  -0.0790000   2.3700000  -1.3460000   3.4980000   0.3370000
  -2.7060000   2.4140000   0.7540000  -0.1860000   1.8380000  -0.8720000
  -2.9000000   1.1560000  -1.3410000  -0.3510000  -0.5180000  -0.3770000
  -2.0130000  -1.4480000   1.2420000  -2.9540000   0.0180000   1.1410000
  -2.3360000  -1.9280000  -1.2000000  -4.5650000  -1.6450000  -1.8710000
  -4.8260000   0.5590000   0.2590000  -5.8020000   0.3300000  -1.1670000
  -6.9440000  -0.2760000   0.9760000  -5.7690000  -1.5530000   1.2580000
  -6.5210000  -2.7380000  -0.7980000  -7.6200000  -1.4070000  -1.1820000
