%VERSION  VERSION_STAMP = V0001.000  DATE = 09/14/26  14:44:02                  
%FLAG TITLE                                                                     
%FORMAT(20a4)                                                                   
PG2                                                                             
%FLAG POINTERS                                                                  
%FORMAT(10I8)                                                                   
      56       9      31      25      73      31     141      50       0       0
     313       1      25      31      50      17      38      36      10       0
       0       0       0       0       0       0       0       0      56       0
       0
%FLAG ATOM_NAME                                                                 
%FORMAT(20a4)                                                                   
C   C1  C2  C3  C4  C5  O   C6  C7  C8  C9  O1  C10 C11 O2  C12 C13 C14 C15 C16 
C17 C18 C19 O3  O4  H   H1  H2  H3  H4  H5  H6  H7  H8  H9  H10 H11 H12 H13 H14 
H15 H16 H17 H18 H19 H20 H21 H22 H23 H24 H25 H26 H27 H28 H29 H30 
%FLAG CHARGE                                                                    
%FORMAT(5E16.8)                                                                 
 -1.67827383E+00 -1.48329522E+00 -1.44685062E+00 -1.44685062E+00 -1.28284992E+00
  3.17614689E+00 -1.09661801E+01 -3.90321666E+00 -2.53654416E+00 -2.54201085E+00
  1.05889785E+01 -9.65964123E+00 -4.08908412E+00  2.75338953E+00 -1.07292902E+01
 -1.70742951E+00 -7.14314160E-01 -4.55921946E+00 -2.06276436E+00 -1.09698246E+00
 -1.20996072E+00 -3.59708202E+00  1.65567818E+01 -1.54944217E+01 -1.54944217E+01
  5.71578884E-01  5.71578884E-01  5.71578884E-01  7.32536460E-01  7.32536460E-01
  6.68758410E-01  6.68758410E-01  8.69203710E-01  8.69203710E-01  1.00587096E+00
  1.00587096E+00  6.68758410E-01  7.32536460E+00  2.38712130E+00  2.49645510E+00
  1.70742951E+00  1.52520651E+00  1.52520651E+00  1.23364971E+00  7.63514370E+00
  1.32476121E+00  8.69203710E-01  8.69203710E-01  2.25956520E+00  2.53289970E+00
  6.32313810E-01  6.32313810E-01  8.96537160E-01  8.96537160E-01  3.49868160E-01
  3.49868160E-01
%FLAG ATOMIC_NUMBER                                                             
%FORMAT(10I8)                                                                   
       6       6       6       6       6       6       8       6       6       6
       6       8       6       6       8       6       6       6       6       6
       6       6       6       8       8       1       1       1       1       1
       1       1       1       1       1       1       1       1       1       1
       1       1       1       1       1       1       1       1       1       1
       1       1       1       1       1       1
%FLAG MASS                                                                      
%FORMAT(5E16.8)                                                                 
  1.20100000E+01  1.20100000E+01  1.20100000E+01  1.20100000E+01  1.20100000E+01
  1.20100000E+01  1.60000000E+01  1.20100000E+01  1.20100000E+01  1.20100000E+01
  1.20100000E+01  1.60000000E+01  1.20100000E+01  1.20100000E+01  1.60000000E+01
  1.20100000E+01  1.20100000E+01  1.20100000E+01  1.20100000E+01  1.20100000E+01
  1.20100000E+01  1.20100000E+01  1.20100000E+01  1.60000000E+01  1.60000000E+01
  1.00800000E+00  1.00800000E+00  1.00800000E+00  1.00800000E+00  1.00800000E+00
  1.00800000E+00  1.00800000E+00  1.00800000E+00  1.00800000E+00  1.00800000E+00
  1.00800000E+00  1.00800000E+00  1.00800000E+00  1.00800000E+00  1.00800000E+00
  1.00800000E+00  1.00800000E+00  1.00800000E+00  1.00800000E+00  1.00800000E+00
  1.00800000E+00  1.00800000E+00  1.00800000E+00  1.00800000E+00  1.00800000E+00
  1.00800000E+00  1.00800000E+00  1.00800000E+00  1.00800000E+00  1.00800000E+00
  1.00800000E+00
%FLAG ATOM_TYPE_INDEX                                                           
%FORMAT(10I8)                                                                   
       1       1       1       1       1       1       2       3       3       4
       3       5       4       4       2       4       1       3       3       1
       1       1       3       5       5       6       6       6       6       6
       6       6       6       6       6       6       7       8       9       9
       6       6       6       7       8       6       6       6       9       9
       6       6       6       6       6       6
%FLAG NUMBER_EXCLUDED_ATOMS                                                     
%FORMAT(10I8)                                                                   
      10      12      14      13      13      12       7      11      12      17
      12       6      10      12       7      13      10      10      11      11
      11       9       6       3       2       4       3       2       3       2
       3       2       3       2       2       1       2       1       1       1
       1       2       1       2       1       2       2       1       1       2
       3       2       3       2       1       1
%FLAG NONBONDED_PARM_INDEX                                                      
%FORMAT(10I8)                                                                   
       1       2       4       7      11      16      22      29      37       2
       3       5       8      12      17      23      30      38       4       5
       6       9      13      18      24      31      39       7       8       9
      10      14      19      25      32      40      11      12      13      14
      15      20      26      33      41      16      17      18      19      20
      21      27      34      42      22      23      24      25      26      27
      28      35      43      29      30      31      32      33      34      35
      36      44      37      38      39      40      41      42      43      44
      45
%FLAG RESIDUE_LABEL                                                             
%FORMAT(20a4)                                                                   
PG2 
%FLAG RESIDUE_POINTER                                                           
%FORMAT(10I8)                                                                   
       1
%FLAG BOND_FORCE_CONSTANT                                                       
%FORMAT(5E16.8)                                                                 
  2.28890000E+02  3.45250000E+02  2.85150000E+02  2.48400000E+02  3.44220000E+02
  5.35510000E+02  4.36000000E+02  3.57290000E+02  3.26800000E+02  3.13000000E+02
  3.00900000E+02  3.30600000E+02  5.90600000E+02  3.16700000E+02  3.30600000E+02
  3.00900000E+02  2.34850000E+02
%FLAG BOND_EQUIL_VALUE                                                          
%FORMAT(5E16.8)                                                                 
  1.53540000E+00  1.09620000E+00  1.42420000E+00  1.50880000E+00  1.09690000E+00
  9.72500000E-01  1.33790000E+00  1.08820000E+00  1.51000000E+00  1.52400000E+00
  1.53800000E+00  1.09700000E+00  1.21900000E+00  1.42300000E+00  1.09700000E+00
  1.53800000E+00  1.52700000E+00
%FLAG ANGLE_FORCE_CONSTANT                                                      
%FORMAT(5E16.8)                                                                 
  5.98700000E+01  4.32700000E+01  7.67900000E+01  6.04000000E+01  4.32800000E+01
  6.51300000E+01  6.08800000E+01  4.29500000E+01  7.73400000E+01  5.62900000E+01
  4.38900000E+01  6.41000000E+01  4.63700000E+01  6.38000000E+01  6.34000000E+01
  4.70000000E+01  4.59000000E+01  6.74000000E+01  6.20000000E+01  6.29000000E+01
  6.29000000E+01  4.63000000E+01  6.33000000E+01  4.69000000E+01  6.75000000E+01
  4.64000000E+01  4.74000000E+01  5.09000000E+01  6.34000000E+01  4.63000000E+01
  4.63000000E+01  4.37600000E+01  6.03600000E+01  7.64500000E+01  4.36300000E+01
  1.04940000E+02  3.58000000E+01  3.94000000E+01
%FLAG ANGLE_EQUIL_VALUE                                                         
%FORMAT(5E16.8)                                                                 
  1.96576518E+00  1.91427794E+00  1.91392888E+00  1.96489251E+00  1.91270715E+00
  1.87430989E+00  2.18078984E+00  2.00800217E+00  1.92562259E+00  1.92649525E+00
  1.91916487E+00  2.15775148E+00  2.10120279E+00  1.94307589E+00  1.94709015E+00
  1.92614619E+00  2.01899774E+00  2.15024656E+00  2.03330945E+00  1.94621748E+00
  1.94621748E+00  1.91637234E+00  1.93801443E+00  1.89839544E+00  1.92317913E+00
  1.91218355E+00  1.87204096E+00  1.92440086E+00  1.94709015E+00  1.91637234E+00
  1.91637234E+00  1.93120765E+00  1.94482122E+00  2.14501057E+00  1.90153704E+00
  2.27172153E+00  1.88024401E+00  1.87762601E+00
%FLAG DIHEDRAL_FORCE_CONSTANT                                                   
%FORMAT(5E16.8)                                                                 
  5.20000000E-01  1.30000000E-01  1.80000000E-01  1.55555556E-01  6.00000000E-02
  0.00000000E+00  1.90000000E+00  6.65000000E+00  9.00000000E-02  1.66666667E-01
  1.15000000E+00  3.80000000E-01  0.00000000E+00  2.00000000E-01  2.50000000E-01
  1.60000000E-01  8.00000000E-01  8.00000000E-02  2.50000000E-01  0.00000000E+00
  1.50000000E-01  5.78000000E+00  1.33000000E+00  2.60000000E-01  4.60000000E-01
  4.00000000E-02  6.80000000E-01  2.00000000E-01  4.40000000E-01  4.03000000E+00
  3.66000000E+00  1.20000000E-01  1.23000000E-01  1.50000000E-01  1.10000000E+00
  1.05000000E+01
%FLAG DIHEDRAL_PERIODICITY                                                      
%FORMAT(5E16.8)                                                                 
  3.00000000E+00  3.00000000E+00  3.00000000E+00  3.00000000E+00  3.00000000E+00
  2.00000000E+00  1.00000000E+00  2.00000000E+00  3.00000000E+00  3.00000000E+00
  1.00000000E+00  3.00000000E+00  2.00000000E+00  1.00000000E+00  2.00000000E+00
  3.00000000E+00  1.00000000E+00  3.00000000E+00  1.00000000E+00  3.00000000E+00
  1.00000000E+00  2.00000000E+00  3.00000000E+00  3.00000000E+00  1.00000000E+00
  2.00000000E+00  1.00000000E+00  2.00000000E+00  3.00000000E+00  1.00000000E+00
  2.00000000E+00  3.00000000E+00  3.00000000E+00  3.00000000E+00  2.00000000E+00
  2.00000000E+00
%FLAG DIHEDRAL_PHASE                                                            
%FORMAT(5E16.8)                                                                 
  0.00000000E+00  0.00000000E+00  0.00000000E+00  0.00000000E+00  0.00000000E+00
  0.00000000E+00  3.14159400E+00  3.14159400E+00  0.00000000E+00  0.00000000E+00
  0.00000000E+00  3.14159400E+00  3.14159400E+00  3.14159400E+00  3.14159400E+00
  0.00000000E+00  0.00000000E+00  3.14159400E+00  0.00000000E+00  0.00000000E+00
  0.00000000E+00  3.14159400E+00  3.14159400E+00  3.14159400E+00  3.14159400E+00
  0.00000000E+00  0.00000000E+00  3.14159400E+00  3.14159400E+00  0.00000000E+00
  3.14159400E+00  0.00000000E+00  0.00000000E+00  0.00000000E+00  3.14159400E+00
  3.14159400E+00
%FLAG SCEE_SCALE_FACTOR                                                         
%FORMAT(5E16.8)                                                                 
  1.20000000E+00  1.20000000E+00  1.20000000E+00  1.20000000E+00  1.20000000E+00
  1.20000000E+00  1.20000000E+00  1.20000000E+00  1.20000000E+00  1.20000000E+00
  1.20000000E+00  1.20000000E+00  1.20000000E+00  1.20000000E+00  1.20000000E+00
  1.20000000E+00  1.20000000E+00  1.20000000E+00  1.20000000E+00  1.20000000E+00
  1.20000000E+00  1.20000000E+00  1.20000000E+00  1.20000000E+00  1.20000000E+00
  1.20000000E+00  1.20000000E+00  1.20000000E+00  1.20000000E+00  1.20000000E+00
  1.20000000E+00  1.20000000E+00  1.20000000E+00  1.20000000E+00  0.00000000E+00
  0.00000000E+00
%FLAG SCNB_SCALE_FACTOR                                                         
%FORMAT(5E16.8)                                                                 
  2.00000000E+00  2.00000000E+00  2.00000000E+00  2.00000000E+00  2.00000000E+00
  2.00000000E+00  2.00000000E+00  2.00000000E+00  2.00000000E+00  2.00000000E+00
  2.00000000E+00  2.00000000E+00  2.00000000E+00  2.00000000E+00  2.00000000E+00
  2.00000000E+00  2.00000000E+00  2.00000000E+00  2.00000000E+00  2.00000000E+00
  2.00000000E+00  2.00000000E+00  2.00000000E+00  2.00000000E+00  2.00000000E+00
  2.00000000E+00  2.00000000E+00  2.00000000E+00  2.00000000E+00  2.00000000E+00
  2.00000000E+00  2.00000000E+00  2.00000000E+00  2.00000000E+00  0.00000000E+00
  0.00000000E+00
%FLAG SOLTY                                                                     
%FORMAT(5E16.8)                                                                 
  0.00000000E+00  0.00000000E+00  0.00000000E+00  0.00000000E+00  0.00000000E+00
  0.00000000E+00  0.00000000E+00  0.00000000E+00  0.00000000E+00  0.00000000E+00
%FLAG LENNARD_JONES_ACOEF                                                       
%FORMAT(5E16.8)                                                                 
  1.02073671E+06  7.18991463E+05  5.03152404E+05  8.43969952E+05  5.92438683E+05
  6.96551276E+05  1.03184851E+06  7.26877088E+05  8.53193737E+05  1.04308023E+06
  6.30925504E+05  4.37717034E+05  5.17507491E+05  6.37913494E+05  3.76435470E+05
  1.00235148E+05  6.80216136E+04  8.12662403E+04  1.01372942E+05  5.68021765E+04
  7.94617769E+03  6.97998263E+04  4.69084694E+04  5.63013422E+04  7.06006146E+04
  3.86646725E+04  5.22955465E+03  3.39005767E+03  3.03553352E+02  1.74176419E+02
  2.25372434E+02  3.07630260E+02  1.15813907E+02  8.80612241E+00  4.36660257E+00
  1.10360882E-05  9.27554496E+04  6.30298721E+04  7.52549148E+04  9.38067954E+04
  5.27277400E+04  7.41026906E+03  4.88692384E+03  8.53132435E+00  6.90855956E+03
%FLAG LENNARD_JONES_BCOEF                                                       
%FORMAT(5E16.8)                                                                 
  6.63431737E+02  5.36620538E+02  4.32634597E+02  5.90251928E+02  4.76608379E+02
  5.24668528E+02  6.69494459E+02  5.41546250E+02  5.95658566E+02  6.75612247E+02
  5.62969425E+02  4.51916854E+02  4.98871431E+02  5.68167388E+02  4.69350655E+02
  1.37787728E+02  1.09393126E+02  1.21392023E+02  1.39078880E+02  1.11953944E+02
  2.57122925E+01  1.14981426E+02  9.08431526E+01  1.01040256E+02  1.16065835E+02
  9.23664132E+01  2.08590256E+01  1.67944276E+01  5.22789272E+00  3.81654050E+00
  4.40751799E+00  5.28230309E+00  3.48534600E+00  5.90150328E-01  4.15568027E-01
  4.55498033E-04  1.24325688E+02  9.87712192E+01  1.09570372E+02  1.25489661E+02
  1.01173582E+02  2.32899892E+01  1.89134207E+01  5.44840215E-01  2.10929191E+01
%FLAG BONDS_INC_HYDROGEN                                                        
%FORMAT(10I8)                                                                   
       0      75       2       0      78       2       0      81       2       3
      84       2       3      87       2       6      90       2       6      93
       2       9      96       2       9      99       2      12     102       2
      12     105       2      15     108       5      18     111       6      21
     114       8      24     117       8      27     120      12      36     123
      12      36     126      12      39     129      15      42     132       6
      45     135      12      48     138       2      48     141       2      51
     144       8      54     147       8      57     150       2      57     153
       2      60     156       2      60     159       2      63     162       2
      63     165       2
%FLAG BONDS_WITHOUT_HYDROGEN                                                    
%FORMAT(10I8)                                                                   
       0       3       1       3       6       1       6       9       1       9
      12       1      12      15       1      15      18       3      15      21
       4      21      24       7      24      27       9      27      30      10
      27      45      11      30      33      13      30      36      10      36
      39      11      39      42      14      39      45      11      45      48
      16      48      51       4      51      54       7      54      57       4
      57      60       1      60      63       1      63      66      17      66
      69      13      66      72      13
%FLAG ANGLES_INC_HYDROGEN                                                       
%FORMAT(10I8)                                                                   
       0       3      84       2       0       3      87       2       3       0
      75       2       3       0      78       2       3       0      81       2
       3       6      90       2       3       6      93       2       6       3
      84       2       6       3      87       2       6       9      96       2
       6       9      99       2       9       6      90       2       9       6
      93       2       9      12     102       2       9      12     105       2
      12       9      96       2      12       9      99       2      12      15
     108       5      15      12     102       2      15      12     105       2
      15      18     111       6      15      21     114       8      18      15
     108      10      21      15     108      11      21      24     117      13
      24      21     114      13      24      27     120      16      27      24
     117      17      27      45     135      22      30      27     120      24
      30      36     123      24      30      36     126      24      36      39
     129      26      39      36     123      22      39      36     126      22
      39      42     132      27      39      45     135      22      42      39
     129      28      45      39     129      26      45      48     138      30
      45      48     141      30      45      27     120      22      48      45
     135      31      48      51     144       8      51      48     138      32
      51      48     141      32      51      54     147      13      54      51
     144      13      54      57     150      32      54      57     153      32
      57      54     147       8      57      60     156       2      57      60
     159       2      60      57     150       2      60      57     153       2
      60      63     162       2      60      63     165       2      63      60
     156       2      63      60     159       2      66      63     162      35
      66      63     165      35      75       0      78      37      75       0
      81      37      78       0      81      37      84       3      87      37
      90       6      93      37      96       9      99      37     102      12
     105      37     123      36     126      38     138      48     141      37
     150      57     153      37     156      60     159      37     162      63
     165      37
%FLAG ANGLES_WITHOUT_HYDROGEN                                                   
%FORMAT(10I8)                                                                   
       0       3       6       1       3       6       9       1       6       9
      12       1       9      12      15       1      12      15      18       3
      12      15      21       4      15      21      24       7      18      15
      21       9      21      24      27      12      24      27      30      14
      24      27      45      15      27      30      33      18      27      30
      36      19      27      45      39      20      27      45      48      21
      30      27      45      23      30      36      39      23      33      30
      36      18      36      39      42      25      36      39      45      20
      39      45      48      21      42      39      45      25      45      48
      51      29      48      51      54       7      51      54      57       7
      54      57      60       4      57      60      63       1      60      63
      66      33      63      66      69      34      63      66      72      34
      69      66      72      36
%FLAG DIHEDRALS_INC_HYDROGEN                                                    
%FORMAT(10I8)                                                                   
       0       3       6      90       2       0       3       6      93       2
       3       6       9      96       2       3       6       9      99       2
      75       0       3       6       2      78       0       3       6       2
      81       0       3       6       2       6       9      12     102       2
       6       9      12     105       2       9       6       3      84       2
       9       6       3      87       2       9      12      15     108       4
      12       9       6      90       2      12       9       6      93       2
      12      15      18     111       5      12      15      21     114       6
      15      12       9      96       2      15      12       9      99       2
      15      21      24     117       8      18      15      12     102       9
      18      15      12     105       9      18      15      21     114       6
      21      15      12     102       4      21      15      12     105       4
      21      15      18     111      10      21      24      27     120      11
      21      24     -27     120       6      21      24     -27     120      12
      24      21      15     108       6      24      27      45     135       4
      27      24      21     114       8      27      30      36     123      13
      27      30      36     126      13      27      45      39     129       4
      27      45      48     138      16      27      45      48     141      16
      30      27      24     117       6      30      27      45     135       4
      30      36      39     129       4      33      30      27     120      17
      33      30     -27     120       6      33      30     -27     120      18
      33      30      36     123      17      33      30     -36     123       6
      33      30     -36     123      18      33      30      36     126      17
      33      30     -36     126       6      33      30     -36     126      18
      36      30      27     120      13      36      39      42     132      19
      36      39     -42     132      16      36      39      45     135      16
      39      45      48     138      16      39      45      48     141      16
      39      45      27     120      16      42      39      36     123      19
      42      39     -36     123      20      42      39      36     126      19
      42      39     -36     126      20      42      39      45     135      19
      42      39     -45     135      20      45      39      36     123      16
      45      39      36     126      16      45      39      42     132      19
      45      39     -42     132      16      45      48      51     144       6
      45      27      24     117       6      48      45      39     129       4
      48      45      27     120      16      48      51      54     147       8
      51      48      45     135       4      51      54      57     150      24
      51      54      57     153      24      54      51      48     138      24
      54      51      48     141      24      54      57      60     156       4
      54      57      60     159       4      57      54      51     144       8
      57      60      63     162       2      57      60      63     165       2
      60      57      54     147       6      63      60      57     150       2
      63      60      57     153       2      66      63      60     156       4
      66      63      60     159       4      69      66      63     162      30
      69      66     -63     162      31      69      66      63     165      30
      69      66     -63     165      31      72      66      63     162      30
      72      66     -63     162      31      72      66      63     165      30
      72      66     -63     165      31      75       0       3      84      32
      75       0       3      87      32      78       0       3      84      32
      78       0       3      87      32      81       0       3      84      32
      81       0       3      87      32      84       3       6      90      32
      84       3       6      93      32      87       3       6      90      32
      87       3       6      93      32      90       6       9      96      32
      90       6       9      99      32      93       6       9      96      32
      93       6       9      99      32      96       9      12     102      32
      96       9      12     105      32      99       9      12     102      32
      99       9      12     105      32     102      12      15     108       4
     105      12      15     108       4     108      15      18     111      33
     108      15      21     114       6     114      21      24     117       8
     117      24      27     120       6     120      27      45     135      34
     123      36      39     129       4     126      36      39     129       4
     129      39      42     132      10     129      39      45     135       4
     135      45      48     138      34     135      45      48     141      34
     138      48      51     144       6     141      48      51     144       6
     144      51      54     147       8     147      54      57     150       6
     147      54      57     153       6     150      57      60     156      32
     150      57      60     159      32     153      57      60     156      32
     153      57      60     159      32     156      60      63     162      32
     156      60      63     165      32     159      60      63     162      32
     159      60      63     165      32      24      15     -21    -114      35
      21      27     -24    -117      35      54      48     -51    -144      35
      51      57     -54    -147      35
%FLAG DIHEDRALS_WITHOUT_HYDROGEN                                                
%FORMAT(10I8)                                                                   
       0       3       6       9       1       3       6       9      12       1
       6       9      12      15       1       9      12      15      18       3
       9      12      15      21       4      12      15      21      24       6
      15      21      24      27       7      15      21     -24      27       8
      18      15      21      24       6      21      24      27      30       6
      21      24      27      45       6      24      27      30      33      13
      24      27      30      36      13      24      27      45      39       4
      24      27      45      48       4      27      30     -36      39      13
      27      45     -39      36      14      27      45     -39      36      15
      27      45     -39      36       3      27      45      39      42       4
      27      45      48      51       4      30      27     -45      39       4
      30      27      45      48       4      30      36      39      42       4
      30      36     -39      45       4      33      30      27      45      13
      33      30      36      39      13      36      30     -27      45      13
      36      39      45      48      14      36      39     -45      48      15
      36      39     -45      48       3      39      45      48      51       4
      42      39      45      48       4      45      48      51      54       6
      48      51      54      57      21      48      51     -54      57      22
      48      51     -54      57      23      51      54      57      60       6
      54      57      60      63       4      57      60      63      66      25
      57      60     -63      66      26      57      60     -63      66      20
      60      63      66      69      27      60      63     -66      69      28
      60      63     -66      69      29      60      63      66      72      27
      60      63     -66      72      28      60      63     -66      72      29
      27      36     -30     -33      36      63      69     -66     -72      35
%FLAG EXCLUDED_ATOMS_LIST                                                       
%FORMAT(10I8)                                                                   
       2       3       4      26      27      28      29      30      31      32
       3       4       5      26      27      28      29      30      31      32
      33      34       4       5       6      26      27      28      29      30
      31      32      33      34      35      36       5       6       7       8
      29      30      31      32      33      34      35      36      37       6
       7       8       9      31      32      33      34      35      36      37
      38      39       7       8       9      10      33      34      35      36
      37      38      39      40       8       9      35      36      37      38
      39       9      10      11      16      35      36      37      38      39
      40      41      10      11      12      13      14      16      17      37
      39      40      41      46      11      12      13      14      15      16
      17      18      39      40      41      42      43      44      46      47
      48      12      13      14      15      16      17      40      41      42
      43      44      46      13      14      16      41      42      43      14
      15      16      17      41      42      43      44      45      46      15
      16      17      18      41      42      43      44      45      46      47
      48      16      17      42      43      44      45      46      17      18
      19      40      41      42      43      44      45      46      47      48
      49      18      19      20      41      44      46      47      48      49
      50      19      20      21      46      47      48      49      50      51
      52      20      21      22      47      48      49      50      51      52
      53      54      21      22      23      49      50      51      52      53
      54      55      56      22      23      24      25      50      51      52
      53      54      55      56      23      24      25      51      52      53
      54      55      56      24      25      53      54      55      56      25
      55      56      55      56      27      28      29      30      28      29
      30      29      30      30      31      32      31      32      32      33
      34      33      34      34      35      36      35      36      36      37
      37      38      39       0      40      41      46      43      44      44
      45      46       0      47      48      48      49      49      50      51
      52      52      53      54      53      54      54      55      56      55
      56      56       0
%FLAG HBOND_ACOEF                                                               
%FORMAT(5E16.8)                                                                 

%FLAG HBOND_BCOEF                                                               
%FORMAT(5E16.8)                                                                 

%FLAG HBCUT                                                                     
%FORMAT(5E16.8)                                                                 

%FLAG AMBER_ATOM_TYPE                                                           
%FORMAT(20a4)                                                                   
c3  c3  c3  c3  c3  c3  oh  c2  c2  c5  c   o   c5  c5  oh  c5  c3  c2  c2  c3  
c3  c3  c   o   o   hc  hc  hc  hc  hc  hc  hc  hc  hc  hc  hc  h1  ho  ha  ha  
hc  hc  hc  h1  ho  hc  hc  hc  ha  ha  hc  hc  hc  hc  hc  hc  
%FLAG TREE_CHAIN_CLASSIFICATION                                                 
%FORMAT(20a4)                                                                   
BLA BLA BLA BLA BLA BLA BLA BLA BLA BLA BLA BLA BLA BLA BLA BLA BLA BLA BLA BLA 
BLA BLA BLA BLA BLA BLA BLA BLA BLA BLA BLA BLA BLA BLA BLA BLA BLA BLA BLA BLA 
BLA BLA BLA BLA BLA BLA BLA BLA BLA BLA BLA BLA BLA BLA BLA BLA 
%FLAG JOIN_ARRAY                                                                
%FORMAT(10I8)                                                                   
       0       0       0       0       0       0       0       0       0       0
       0       0       0       0       0       0       0       0       0       0
       0       0       0       0       0       0       0       0       0       0
       0       0       0       0       0       0       0       0       0       0
       0       0       0       0       0       0       0       0       0       0
       0       0       0       0       0       0
%FLAG IROTAT                                                                    
%FORMAT(10I8)                                                                   
       0       0       0       0       0       0       0       0       0       0
       0       0       0       0       0       0       0       0       0       0
       0       0       0       0       0       0       0       0       0       0
       0       0       0       0       0       0       0       0       0       0
       0       0       0       0       0       0       0       0       0       0
       0       0       0       0       0       0
%FLAG RADIUS_SET                                                                
%FORMAT(1a80)                                                                   
modified Bondi radii (mbondi)                                                   
%FLAG RADII                                                                     
%FORMAT(5E16.8)                                                                 
  1.70000000E+00  1.70000000E+00  1.70000000E+00  1.70000000E+00  1.70000000E+00
  1.70000000E+00  1.50000000E+00  1.70000000E+00  1.70000000E+00  1.70000000E+00
  1.70000000E+00  1.50000000E+00  1.70000000E+00  1.70000000E+00  1.50000000E+00
  1.70000000E+00  1.70000000E+00  1.70000000E+00  1.70000000E+00  1.70000000E+00
  1.70000000E+00  1.70000000E+00  1.70000000E+00  1.50000000E+00  1.50000000E+00
  1.30000000E+00  1.30000000E+00  1.30000000E+00  1.30000000E+00  1.30000000E+00
  1.30000000E+00  1.30000000E+00  1.30000000E+00  1.30000000E+00  1.30000000E+00
  1.30000000E+00  1.30000000E+00  8.00000000E-01  1.30000000E+00  1.30000000E+00
  1.30000000E+00  1.30000000E+00  1.30000000E+00  1.30000000E+00  8.00000000E-01
  1.30000000E+00  1.30000000E+00  1.30000000E+00  1.30000000E+00  1.30000000E+00
  1.30000000E+00  1.30000000E+00  1.30000000E+00  1.30000000E+00  1.30000000E+00
  1.30000000E+00
%FLAG SCREEN                                                                    
%FORMAT(5E16.8)                                                                 
  7.20000000E-01  7.20000000E-01  7.20000000E-01  7.20000000E-01  7.20000000E-01
  7.20000000E-01  8.50000000E-01  7.20000000E-01  7.20000000E-01  7.20000000E-01
  7.20000000E-01  8.50000000E-01  7.20000000E-01  7.20000000E-01  8.50000000E-01
  7.20000000E-01  7.20000000E-01  7.20000000E-01  7.20000000E-01  7.20000000E-01
  7.20000000E-01  7.20000000E-01  7.20000000E-01  8.50000000E-01  8.50000000E-01
  8.50000000E-01  8.50000000E-01  8.50000000E-01  8.50000000E-01  8.50000000E-01
  8.50000000E-01  8.50000000E-01  8.50000000E-01  8.50000000E-01  8.50000000E-01
  8.50000000E-01  8.50000000E-01  8.50000000E-01  8.50000000E-01  8.50000000E-01
  8.50000000E-01  8.50000000E-01  8.50000000E-01  8.50000000E-01  8.50000000E-01
  8.50000000E-01  8.50000000E-01  8.50000000E-01  8.50000000E-01  8.50000000E-01
  8.50000000E-01  8.50000000E-01  8.50000000E-01  8.50000000E-01  8.50000000E-01
  8.50000000E-01
%FLAG IPOL                                                                      
%FORMAT(1I8)                                                                    
       0
