default_name
  4835
   6.9680000 109.1800000  66.7920000   5.9880000 109.3010000  67.0090000
   7.4540000 109.0780000  67.6720000   7.4580000 110.3570000  66.0330000
   6.8920000 111.2580000  66.2720000   8.5100000 110.5320000  66.2580000
   7.3330000 110.0130000  64.5520000   7.9940000 110.6240000  63.9370000
   6.2980000 110.1180000  64.2250000   7.7500000 108.5420000  64.5590000
   7.3570000 108.0100000  63.6920000   8.8370000 108.4730000  64.5750000
   7.1340000 108.0160000  65.8690000   6.1400000 107.6450000  65.6220000
   7.9000000 106.8200000  66.4650000   7.3560000 105.7180000  66.5220000
   9.1510000 107.0260000  66.9120000   9.5480000 107.9490000  66.8050000
  10.0810000 105.9600000  67.3400000  10.2990000 105.3870000  66.4390000
  11.4270000 106.5650000  67.8120000  11.8000000 107.1990000  67.0070000
  11.2740000 107.4520000  69.0610000  12.2210000 107.9480000  69.2710000
  11.0030000 106.8530000  69.9300000  10.5200000 108.2230000  68.9010000
  12.5130000 105.5070000  68.1090000  12.1920000 104.8570000  68.9230000
  13.4160000 106.0230000  68.4360000  12.8900000 104.6420000  66.9000000
  13.7370000 104.0080000  67.1630000  13.1700000 105.2780000  66.0600000
  12.0570000 104.0010000  66.6120000   9.4880000 104.9500000  68.3370000
   9.6870000 103.7520000  68.1670000   8.7290000 105.3990000  69.3430000
   8.5940000 106.3960000  69.4270000   8.1150000 104.5120000  70.3500000
   8.9120000 103.9600000  70.8490000   7.3810000 105.3400000  71.4170000
   6.6380000 105.9770000  70.9370000   6.8650000 104.6580000  72.0930000
   8.3410000 106.2120000  72.2370000   8.9050000 106.8520000  71.5580000
   9.0520000 105.5660000  72.7520000   7.5420000 107.2910000  73.4610000
   6.9430000 106.0630000  74.6540000   7.7760000 105.4570000  75.0110000
   6.4840000 106.5730000  75.5010000   6.2000000 105.4170000  74.1850000
   7.1740000 103.4630000  69.7260000   7.2890000 102.2720000  70.0210000
   6.2820000 103.8880000  68.8230000   6.2550000 104.8750000  68.6070000
   5.4040000 102.9920000  68.0580000   4.7090000 103.5860000  67.4640000
   4.8250000 102.3770000  68.7460000   6.1800000 102.0710000  67.1110000
   5.9190000 100.8660000  67.0610000   7.1750000 102.6210000  66.4030000
   7.3050000 103.6220000  66.4520000   8.0830000 101.8550000  65.5360000
   7.4890000 101.3840000  64.7530000   9.1130000 102.7630000  64.8520000
   9.7540000 103.2250000  65.6020000   9.7330000 102.1580000  64.1900000
   8.4660000 103.7700000  64.0940000   9.1320000 104.2510000  63.5970000
   8.8030000 100.7360000  66.2950000   8.8050000  99.5990000  65.8320000
   9.3730000 101.0210000  67.4710000   9.3850000 101.9820000  67.7810000
  10.0510000 100.0290000  68.3160000  10.8970000  99.6290000  67.7560000
  10.6110000 100.6700000  69.5910000   9.8170000 101.2040000  70.1140000
  10.9980000  99.8890000  70.2450000  11.6640000 101.5630000  69.2670000
  11.9630000 101.9790000  70.0790000   9.1530000  98.8430000  68.6770000
   9.5850000  97.7020000  68.5330000   7.9000000  99.0810000  69.0930000
   7.6040000 100.0420000  69.1910000   6.9140000  98.0100000  69.3520000
   7.3160000  97.3700000  70.1380000   5.5750000  98.5780000  69.8660000
   5.2100000  99.3320000  69.1680000   4.4950000  97.4980000  70.0160000
   4.8480000  96.7030000  70.6730000   3.5920000  97.9370000  70.4400000
   4.2370000  97.0760000  69.0450000   5.7600000  99.2320000  71.2410000
   4.8160000  99.6660000  71.5730000   6.0870000  98.4900000  71.9690000
   6.5020000 100.0290000  71.1890000   6.7230000  97.1090000  68.1240000
   6.9110000  95.8940000  68.2180000   6.3910000  97.6970000  66.9670000
   6.2720000  98.7000000  66.9570000   6.2480000  96.9720000  65.6960000
   5.4300000  96.2580000  65.7960000   5.8700000  97.9640000  64.5840000
   6.4850000  98.8580000  64.6860000   4.8350000  98.2730000  64.7310000
   6.0250000  97.4390000  63.1660000   5.1260000  96.4810000  62.6530000
   4.3310000  96.0980000  63.2770000   5.2500000  96.0380000  61.3210000
   4.5550000  95.3170000  60.9160000   6.2780000  96.5510000  60.4970000
   6.3660000  96.1800000  59.1920000   7.0580000  96.6600000  58.7300000
   7.2020000  97.4740000  61.0270000   8.0000000  97.8510000  60.4050000
   7.0720000  97.9210000  62.3540000   7.7680000  98.6500000  62.7430000
   7.5060000  96.1610000  65.3390000   7.4120000  94.9540000  65.1190000
   8.6810000  96.8000000  65.3400000   8.6700000  97.7890000  65.5430000
   9.9890000  96.1730000  65.0930000   9.9790000  95.7710000  64.0800000
  11.1180000  97.2300000  65.1610000  11.0000000  97.8040000  66.0800000
  12.5140000  96.5800000  65.1800000  12.6490000  95.9920000  66.0880000
  13.2920000  97.3430000  65.1750000  12.6420000  95.9360000  64.3100000
  11.0060000  98.1860000  63.9510000   9.9670000  98.4810000  63.8050000
  11.3190000  97.6570000  63.0510000  11.8240000  99.4760000  64.0900000
  12.8920000  99.2560000  64.0810000  11.6000000 100.1330000  63.2500000
  11.5640000  99.9850000  65.0170000  10.2330000  94.9740000  66.0230000
  10.5500000  93.8900000  65.5410000  10.0770000  95.1350000  67.3410000
   9.8430000  96.0530000  67.6930000  10.2280000  94.0430000  68.3200000
  11.2500000  93.6700000  68.2540000  10.0080000  94.5480000  69.7590000
   9.0570000  95.0780000  69.8100000  10.0030000  93.4370000  70.8110000
  10.8960000  92.8200000  70.7160000   9.9700000  93.8760000  71.8080000
   9.1190000  92.8100000  70.6900000  11.0450000  95.4350000  70.1260000
  11.8530000  94.9270000  70.2230000   9.3120000  92.8550000  68.0050000
   9.7940000  91.7240000  67.9210000   8.0080000  93.0940000  67.8160000
   7.6820000  94.0470000  67.8830000   7.0310000  92.0570000  67.4260000
   7.0180000  91.2950000  68.2060000   5.6080000  92.6460000  67.3350000
   5.6230000  93.5340000  66.7020000   4.5940000  91.6570000  66.7490000
   3.5940000  92.0860000  66.7990000   4.6100000  90.7230000  67.3100000
   4.8240000  91.4550000  65.7030000   5.1020000  93.0410000  68.7280000
   4.1190000  93.5060000  68.6460000   5.7790000  93.7550000  69.1950000
   5.0270000  92.1590000  69.3640000   7.4420000  91.3380000  66.1330000
   7.5180000  90.1100000  66.1010000   7.7370000  92.0930000  65.0760000
   7.6570000  93.0960000  65.1690000   8.2420000  91.5810000  63.7990000
   7.4760000  90.9550000  63.3420000   8.5270000  92.7640000  62.8650000
   9.0520000  93.5440000  63.4170000   9.1890000  92.4380000  62.0630000
   7.2650000  93.3620000  62.2400000   7.5200000  94.3490000  61.8530000
   6.4900000  93.4910000  62.9960000   6.7520000  92.4790000  61.0870000
   7.2110000  92.6630000  59.9370000   5.9000000  91.5880000  61.3250000
   9.4880000  90.6920000  63.9560000   9.5020000  89.5630000  63.4650000
  10.5260000  91.1580000  64.6580000  10.4660000  92.0910000  65.0400000
  11.7490000  90.3830000  64.8980000  12.1270000  90.0430000  63.9340000
  12.8190000  91.2760000  65.5520000  13.6570000  90.6510000  65.8600000
  12.3930000  91.7230000  66.4500000  13.3620000  92.3960000  64.6400000
  12.5380000  92.9870000  64.2400000  14.2640000  93.3220000  65.4540000
  14.6180000  94.1390000  64.8240000  15.1190000  92.7680000  65.8420000
  13.7010000  93.7430000  66.2870000  14.1750000  91.8540000  63.4630000
  13.5350000  91.2770000  62.7960000  14.5950000  92.6840000  62.8940000
  14.9870000  91.2230000  63.8260000  11.4970000  89.1060000  65.7220000
  12.0560000  88.0570000  65.3990000  10.6280000  89.1540000  66.7380000
  10.2130000  90.0430000  66.9820000  10.2030000  87.9630000  67.4770000
  11.0880000  87.4950000  67.9090000   9.2860000  88.3860000  68.6310000
   9.0150000  87.5100000  69.2200000   9.8060000  89.0950000  69.2740000
   8.3770000  88.8500000  68.2490000   9.5410000  86.9200000  66.5520000
   9.9260000  85.7480000  66.5560000   8.5910000  87.3560000  65.7140000
   8.3230000  88.3280000  65.7740000   7.9750000  86.5370000  64.6560000
   7.5010000  85.6800000  65.1350000   6.8610000  87.3280000  63.9270000
   7.2490000  88.3090000  63.6520000   6.3750000  86.6320000  62.6400000
   5.9160000  85.6720000  62.8800000   5.6430000  87.2570000  62.1310000
   7.1990000  86.4690000  61.9450000   5.6690000  87.5140000  64.8930000
   5.1920000  86.5500000  65.0730000   6.0280000  87.8860000  65.8520000
   4.6120000  88.5030000  64.3950000   4.1020000  88.1170000  63.5130000
   5.0800000  89.4590000  64.1590000   3.8760000  88.6500000  65.1850000
   9.0330000  85.9460000  63.7140000   9.0080000  84.7430000  63.4720000
   9.9760000  86.7480000  63.2050000   9.9240000  87.7350000  63.4120000
  11.0570000  86.2770000  62.3320000  10.6040000  85.8730000  61.4270000
  11.9450000  87.4630000  61.9330000  12.7420000  87.1180000  61.2740000
  12.3970000  87.9190000  62.8140000  11.3540000  88.2110000  61.4050000
  11.8890000  85.1430000  62.9560000  12.0570000  84.0970000  62.3290000
  12.3710000  85.3220000  64.1920000  12.2050000  86.2130000  64.6370000
  13.0940000  84.2860000  64.9550000  14.0080000  84.0430000  64.4120000
  13.5080000  84.8150000  66.3450000  12.6440000  85.2730000  66.8280000
  14.0470000  83.7190000  67.2720000  14.4100000  84.1640000  68.1990000
  13.2550000  83.0160000  67.5300000  14.8650000  83.1860000  66.7880000
  14.6090000  85.8730000  66.2020000  14.2750000  86.6890000  65.5620000
  15.5040000  85.4270000  65.7670000  14.8550000  86.2840000  67.1810000
  12.2910000  82.9830000  65.0390000  12.7850000  81.9260000  64.6460000
  11.0390000  83.0530000  65.5060000  10.6860000  83.9550000  65.7910000
  10.1500000  81.8890000  65.6230000  10.6400000  81.1400000  66.2450000
   8.8390000  82.3200000  66.3080000   8.1310000  81.4930000  66.2600000
   8.4170000  83.1540000  65.7460000   8.9850000  82.7410000  67.7830000
   9.7880000  83.4710000  67.8880000   7.6830000  83.3840000  68.2580000
   7.4640000  84.2620000  67.6500000   7.7850000  83.6990000  69.2970000
   6.8600000  82.6740000  68.1760000   9.2900000  81.5480000  68.6900000
  10.2580000  81.1180000  68.4340000   9.3280000  81.8790000  69.7280000
   8.5160000  80.7880000  68.5860000   9.8750000  81.2090000  64.2680000
   9.9480000  79.9840000  64.1650000   9.6030000  81.9960000  63.2210000
   9.5440000  82.9910000  63.3810000   9.3840000  81.5160000  61.8560000
   8.5450000  80.8210000  61.8640000   9.0120000  82.7080000  60.9650000
   9.8060000  83.4560000  60.9770000   8.0890000  83.1640000  61.3230000
   8.8740000  82.3670000  59.9390000  10.5990000  80.7560000  61.3040000
  10.4360000  79.6710000  60.7460000  11.8120000  81.2900000  61.4850000
  11.8760000  82.1930000  61.9340000  13.0560000  80.6170000  61.0820000
  12.9720000  80.3430000  60.0310000  14.2710000  81.5670000  61.2210000
  14.2600000  81.9990000  62.2220000  15.6030000  80.8150000  61.0310000
  15.7440000  80.0700000  61.8140000  15.6240000  80.3230000  60.0590000
  16.4430000  81.5070000  61.0940000  14.1660000  82.7070000  60.1820000
  14.4100000  82.3180000  59.1930000  13.1410000  83.0750000  60.1410000
  15.0660000  83.9090000  60.4960000  14.8830000  84.6990000  59.7670000
  16.1180000  83.6270000  60.4400000  14.8430000  84.2900000  61.4920000
  13.2210000  79.3050000  61.8580000  13.2520000  78.2430000  61.2430000
  13.2760000  79.3570000  63.1940000  13.1830000  80.2580000  63.6410000
  13.5500000  78.1850000  64.0400000  14.5330000  77.7960000  63.7760000
  13.5680000  78.6080000  65.5220000  12.6300000  79.1180000  65.7450000
  13.6090000  77.7120000  66.1410000  14.7410000  79.5250000  65.9210000
  14.7860000  80.3870000  65.2560000  14.5280000  80.0250000  67.3490000
  15.3360000  80.7010000  67.6280000  14.5060000  79.1840000  68.0430000
  13.5830000  80.5650000  67.4110000  16.0880000  78.8020000  65.8670000
  16.3220000  78.5180000  64.8410000  16.0610000  77.9100000  66.4940000
  16.8750000  79.4660000  66.2240000  12.5610000  77.0290000  63.8070000
  12.9820000  75.8920000  63.5830000  11.2550000  77.3180000  63.8050000
  10.9680000  78.2680000  63.9930000  10.2120000  76.3080000  63.5940000
  10.3040000  75.5330000  64.3550000   9.2340000  76.7760000  63.7070000
  10.2780000  75.6400000  62.2170000  10.1360000  74.4250000  62.1050000
  10.5120000  76.4080000  61.1490000  10.6580000  77.3980000  61.2800000
  10.5460000  75.8510000  59.7890000   9.8120000  75.0480000  59.7280000
  10.1050000  76.9180000  58.7880000  10.6800000  77.8310000  58.9420000
  10.2820000  76.5630000  57.7720000   8.6260000  77.1970000  58.9370000
   7.7790000  76.4330000  58.5040000   8.2950000  78.2750000  59.5990000
   7.3230000  78.5320000  59.6970000   9.0170000  78.8750000  59.9700000
  11.8870000  75.2030000  59.4280000  11.8900000  74.2010000  58.7170000
  13.0100000  75.6890000  59.9710000  12.9610000  76.5480000  60.5000000
  14.2810000  74.9410000  59.9900000  14.6010000  74.7910000  58.9590000
  15.3950000  75.7300000  60.7100000  15.0090000  76.1250000  61.6490000
  16.6320000  74.8770000  61.0240000  17.4180000  75.5070000  61.4390000
  17.0000000  74.3990000  60.1170000  16.3900000  74.1140000  61.7630000
  15.8600000  76.8980000  59.8300000  16.3380000  76.5210000  58.9250000
  15.0150000  77.5230000  59.5420000  16.5730000  77.5130000  60.3800000
  14.0660000  73.5420000  60.5760000  14.4290000  72.5580000  59.9370000
  13.4130000  73.4350000  61.7410000  13.1680000  74.2800000  62.2360000
  13.0610000  72.1490000  62.3590000  13.9910000  71.6050000  62.5230000
  12.4380000  72.4290000  63.7410000  11.5670000  73.0720000  63.6120000
  13.1640000  72.9780000  64.3410000  11.9870000  71.1890000  64.5310000
  11.2280000  70.6570000  63.9580000  13.1490000  70.2420000  64.8310000
  13.9560000  70.7870000  65.3210000  12.8140000  69.4400000  65.4900000
  13.5160000  69.8000000  63.9060000  11.3720000  71.6230000  65.8600000
  10.5240000  72.2830000  65.6740000  12.1110000  72.1470000  66.4640000
  11.0160000  70.7490000  66.4060000  12.1890000  71.2540000  61.4470000
  12.4800000  70.0660000  61.3180000  11.1760000  71.8090000  60.7630000
  10.9490000  72.7720000  60.9640000  10.4060000  71.0970000  59.7120000
   9.9260000  70.2350000  60.1750000   9.2710000  71.9670000  59.1260000
   9.6750000  72.9270000  58.8050000   8.5700000  71.3230000  57.9220000
   7.7280000  71.9410000  57.6110000   9.2540000  71.2430000  57.0760000
   8.2010000  70.3310000  58.1850000   8.1880000  72.2190000  60.1800000
   7.4370000  72.9000000  59.7800000   8.6190000  72.6610000  61.0780000
   7.7070000  71.2780000  60.4500000  11.3090000  70.5220000  58.6120000
  11.2770000  69.3160000  58.3600000  12.1340000  71.3510000  57.9640000
  12.1190000  72.3350000  58.1910000  13.0490000  70.8930000  56.9110000
  12.4660000  70.4140000  56.1250000  13.7620000  72.1100000  56.3010000
  14.4690000  71.7740000  55.5430000  14.3100000  72.6470000  57.0750000
  12.5450000  73.2210000  55.5290000  13.4160000  74.1350000  55.0930000
  14.0590000  69.8440000  57.4160000  14.3040000  68.8420000  56.7430000
  14.5880000  70.0290000  58.6290000  14.3570000  70.8840000  59.1160000
  15.5220000  69.1110000  59.2900000  16.3700000  68.9520000  58.6230000
  16.0390000  69.8030000  60.5620000  15.2240000  69.8670000  61.2820000
  16.3160000  70.8240000  60.2960000  17.2340000  69.2380000  61.2670000
  18.0180000  68.2130000  60.8600000  17.8720000  67.6350000  59.9600000
  19.0550000  68.0340000  61.7570000  19.7770000  67.3380000  61.6410000
  18.9950000  68.9430000  62.7910000  19.8030000  69.1720000  63.9140000
  20.6650000  68.5480000  64.1020000  19.4800000  70.2280000  64.7830000
  20.0920000  70.4200000  65.6530000  18.3630000  71.0390000  64.5160000
  18.1210000  71.8530000  65.1840000  17.5560000  70.7980000  63.3850000
  16.7010000  71.4290000  63.1900000  17.8460000  69.7370000  62.4980000
  14.8860000  67.7390000  59.5710000  15.5080000  66.7040000  59.3270000
  13.6180000  67.7100000  59.9980000  13.1650000  68.5860000  60.2200000
  12.8450000  66.4790000  60.1590000  13.3930000  65.8280000  60.8400000
  11.4970000  66.8190000  60.8040000  10.9300000  67.4990000  60.1670000
  11.6690000  67.2920000  61.7710000  10.9120000  65.9120000  60.9520000
  12.6890000  65.6910000  58.8490000  12.9870000  64.4950000  58.8170000
  12.2730000  66.3490000  57.7580000  12.0350000  67.3260000  57.8500000
  12.1630000  65.6990000  56.4350000  11.5400000  64.8120000  56.5500000
  11.4720000  66.6090000  55.3960000  12.0590000  67.5190000  55.2680000
  11.3300000  65.9200000  54.0320000  10.8020000  64.9730000  54.1420000
  10.7720000  66.5580000  53.3470000  12.3110000  65.7360000  53.5940000
  10.0610000  66.9970000  55.8580000  10.1150000  67.6010000  56.7640000
   9.4650000  66.1060000  56.0540000   9.5630000  67.5910000  55.0910000
  13.5300000  65.2030000  55.9410000  13.6380000  64.0820000  55.4460000
  14.5920000  65.9940000  56.1230000  14.4440000  66.9180000  56.5050000
  15.9680000  65.6010000  55.7970000  16.0240000  65.3930000  54.7290000
  16.9120000  66.7740000  56.0930000  16.7710000  67.0960000  57.1250000
  16.6390000  67.6110000  55.4510000  18.3670000  66.4870000  55.8910000
  19.2730000  66.2820000  56.8750000  19.0570000  66.3120000  57.9330000
  20.5120000  66.0230000  56.3220000  21.3390000  65.8430000  56.8720000
  20.4660000  66.0450000  54.9440000  21.4360000  65.8470000  53.9510000
  22.4580000  65.6250000  54.2240000  21.0610000  65.9410000  52.6000000
  21.7950000  65.7930000  51.8220000  19.7270000  66.2320000  52.2630000
  19.4430000  66.3060000  51.2230000  18.7590000  66.4290000  53.2690000
  17.7390000  66.6550000  52.9960000  19.1030000  66.3400000  54.6360000
  16.4230000  64.3200000  56.5240000  16.9460000  63.4060000  55.8830000
  16.2180000  64.2310000  57.8450000  15.8080000  65.0220000  58.3210000
  16.6530000  63.0780000  58.6460000  17.6580000  62.8020000  58.3250000
  16.7080000  63.4600000  60.1360000  16.8140000  62.5490000  60.7240000
  15.7590000  63.9190000  60.4120000  17.8590000  64.4060000  60.5190000
  17.8060000  65.3160000  59.9200000  17.7070000  64.7720000  61.9920000
  16.7720000  65.3180000  62.1210000  17.6920000  63.8730000  62.6080000
  18.5320000  65.4080000  62.3120000  19.2400000  63.7750000  60.3330000
  19.3000000  62.8350000  60.8830000  20.0080000  64.4540000  60.7020000
  19.4330000  63.5910000  59.2760000  15.8040000  61.8080000  58.4680000
  16.3610000  60.7080000  58.4420000  14.4750000  61.9310000  58.3870000
  14.0730000  62.8570000  58.3980000  13.5630000  60.7870000  58.4940000
  14.1010000  59.9410000  58.9200000  12.4530000  61.1480000  59.4970000
  12.9130000  61.5040000  60.4190000  11.8430000  61.9530000  59.0860000
  11.5430000  59.9800000  59.8460000  11.5570000  58.9240000  59.2330000
  10.7170000  60.1470000  60.8440000  10.0610000  59.4150000  61.0800000
  10.7220000  61.0080000  61.3730000  13.0110000  60.3400000  57.1270000
  12.1870000  61.0280000  56.5230000  13.4030000  59.1480000  56.6700000
  14.0500000  58.6060000  57.2240000  12.9110000  58.5360000  55.4250000
  13.1810000  59.1900000  54.5960000  13.6110000  57.1930000  55.1880000
  13.2470000  56.7570000  54.2580000  14.6840000  57.3600000  55.0980000
  13.3600000  56.3020000  56.2620000  13.7960000  55.4690000  56.0670000
  11.3840000  58.3560000  55.3770000  10.7970000  58.5160000  54.3070000
  10.7080000  58.1220000  56.5110000  11.2330000  57.9950000  57.3650000
   9.2370000  58.0650000  56.5770000   8.8880000  57.3130000  55.8690000
   8.7540000  57.6590000  57.9830000   7.6660000  57.7170000  57.9940000
   9.1230000  58.3740000  58.7180000   9.1270000  56.2560000  58.4420000
   9.8430000  55.5000000  57.8000000   8.6060000  55.8550000  59.5790000
   7.9950000  56.4790000  60.0860000   8.8180000  54.9270000  59.9160000
   8.5810000  59.4020000  56.1750000   7.4840000  59.4120000  55.6140000
   9.2500000  60.5310000  56.4500000  10.1680000  60.4530000  56.8630000
   8.7910000  61.8700000  56.0650000   7.7020000  61.8840000  56.1060000
   9.3240000  62.9230000  57.0620000   9.0740000  63.9160000  56.6870000
  10.4120000  62.8540000  57.0960000   8.7770000  62.8180000  58.4970000
   9.0040000  61.8320000  58.9020000   9.4380000  63.8740000  59.3810000
   9.0660000  63.7860000  60.4010000  10.5180000  63.7310000  59.3920000
   9.2180000  64.8720000  58.9990000   7.2690000  63.0660000  58.5570000
   6.9400000  63.0940000  59.5960000   7.0280000  64.0240000  58.0970000
   6.7290000  62.2650000  58.0520000   9.1570000  62.2480000  54.6190000
   8.6690000  63.2670000  54.1410000   9.9680000  61.4660000  53.9050000
  10.3100000  60.6130000  54.3240000  10.3870000  61.7650000  52.5300000
  10.4280000  62.8470000  52.4010000  11.8140000  61.2420000  52.2890000
  11.8640000  60.1870000  52.5580000  12.0720000  61.3440000  51.2350000
  12.8230000  62.0450000  53.1260000  12.9410000  63.0390000  52.6960000
  12.4340000  62.1690000  54.1370000  14.1980000  61.3960000  53.2530000
  14.5860000  60.4860000  52.5300000  14.9850000  61.8550000  54.1980000
  14.6540000  62.6140000  54.7760000  15.9210000  61.4880000  54.2950000
   9.3590000  61.2270000  51.5210000   9.4060000  60.0680000  51.1030000
   8.4110000  62.0930000  51.1490000   8.4460000  63.0250000  51.5360000
   7.3200000  61.8190000  50.2090000   7.7030000  61.1840000  49.4110000
   6.1790000  61.0710000  50.9360000   6.5750000  60.1560000  51.3780000
   5.4240000  60.7720000  50.2080000   5.4810000  61.8940000  52.0080000
   4.7870000  62.8600000  51.7230000   5.6210000  61.5400000  53.2640000
   6.1470000  60.7150000  53.5130000   5.1190000  62.0740000  53.9590000
   6.8340000  63.1300000  49.5670000   7.0470000  64.2070000  50.1240000
   6.1700000  63.0440000  48.4090000   6.0250000  62.1260000  48.0140000
   5.7090000  64.2150000  47.6330000   6.6010000  64.7570000  47.3200000
   4.9820000  63.8010000  46.3390000   4.1560000  63.1320000  46.5780000
   4.4290000  65.0270000  45.6030000   3.5320000  65.3840000  46.1070000
   5.1700000  65.8270000  45.5920000   4.1650000  64.7750000  44.5760000
   5.9670000  63.0680000  45.4140000   6.8590000  63.6740000  45.2540000
   5.5030000  62.8680000  44.4490000   6.2610000  62.1130000  45.8520000
   4.9170000  65.2360000  48.4560000   5.2310000  66.4250000  48.3910000
   3.9570000  64.7930000  49.2780000   3.7140000  63.8130000  49.2520000
   3.2180000  65.6570000  50.2270000   2.5360000  66.2900000  49.6580000
   2.4090000  64.8630000  51.2820000   2.9940000  64.7740000  52.1970000
   1.1130000  65.5860000  51.6520000   1.3480000  66.5510000  52.1000000
   0.5020000  65.7460000  50.7640000   0.5540000  64.9890000  52.3720000
   2.1150000  63.5440000  50.8800000   2.8850000  63.0240000  51.1230000
   4.1750000  66.5610000  51.0020000   4.0180000  67.7820000  51.0440000
   5.2020000  65.9530000  51.5970000   5.3090000  64.9560000  51.4700000
   6.1700000  66.6470000  52.4320000   5.6180000  67.3820000  53.0180000
   6.7850000  65.6550000  53.4230000   7.6290000  66.1230000  53.9310000
   7.1560000  64.7930000  52.8690000   5.8050000  65.1880000  54.4910000
   4.7240000  65.7230000  54.6920000   6.1790000  64.1700000  55.2240000
   5.5920000  63.8890000  55.9970000   7.0830000  63.7630000  55.0310000
   7.2170000  67.4430000  51.6460000   7.7050000  68.4380000  52.1710000
   7.5190000  67.1110000  50.3880000   7.1600000  66.2450000  50.0110000
   8.3260000  67.9870000  49.5240000   9.2690000  68.1930000  50.0310000
   8.6570000  67.2850000  48.1950000   9.3120000  67.9390000  47.6190000
   7.7330000  67.1730000  47.6280000   9.3320000  65.9200000  48.2870000
  10.1350000  65.5560000  49.3930000  10.3020000  66.2490000  50.2050000
  10.7390000  64.2850000  49.4490000  11.3610000  64.0210000  50.2920000
  10.5350000  63.3610000  48.4010000  11.1110000  62.1300000  48.4420000
  11.8550000  62.1010000  49.0470000   9.7430000  63.7230000  47.2940000
   9.5980000  63.0120000  46.4940000   9.1660000  65.0050000  47.2280000
   8.5870000  65.2880000  46.3610000   7.6470000  69.3540000  49.3110000
   8.2980000  70.3940000  49.4230000   6.3220000  69.3860000  49.1210000
   5.8260000  68.5160000  48.9950000   5.5620000  70.6460000  49.1370000
   6.0750000  71.3530000  48.4840000   4.1630000  70.4380000  48.5520000
   3.5980000  71.3590000  48.6940000   3.6620000  69.6410000  49.1020000
   4.1490000  70.1210000  47.0700000   4.4860000  71.1250000  46.1420000
   4.7450000  72.1160000  46.4840000   4.4850000  70.8440000  44.7650000
   4.7430000  71.6200000  44.0600000   4.1520000  69.5580000  44.3080000
   4.1530000  69.3390000  43.2510000   3.7920000  68.5600000  45.2300000
   3.5090000  67.5800000  44.8750000   3.7910000  68.8400000  46.6090000
   3.5140000  68.0670000  47.3120000   5.5140000  71.3140000  50.5250000
   5.6110000  72.5380000  50.6030000   5.4550000  70.5520000  51.6270000
   5.3000000  69.5600000  51.5180000   5.6270000  71.1160000  52.9890000
   4.9000000  71.9190000  53.1090000   5.3440000  70.0870000  54.1060000
   5.9610000  69.2040000  53.9420000   5.6800000  70.6120000  55.5060000
   6.7590000  70.7240000  55.6170000   5.2010000  71.5770000  55.6710000
   5.3390000  69.9080000  56.2640000   3.8660000  69.6790000  54.1030000
   3.6950000  68.9090000  54.8560000   3.2380000  70.5400000  54.3310000
   3.5780000  69.2780000  53.1310000   7.0050000  71.7690000  53.1630000
   7.0850000  72.8530000  53.7280000   8.0810000  71.1830000  52.6240000
   7.9680000  70.2630000  52.2230000   9.4250000  71.7960000  52.6050000
   9.6710000  72.0970000  53.6230000  10.5040000  70.7840000  52.1630000
  10.1820000  70.2840000  51.2500000  11.8720000  71.4260000  51.8990000
  12.1990000  71.9910000  52.7720000  12.6090000  70.6530000  51.6800000
  11.8200000  72.0910000  51.0370000  10.7070000  69.7280000  53.2560000
  11.4320000  68.9860000  52.9220000   9.7660000  69.2210000  53.4670000
  11.0700000  70.1970000  54.1710000   9.4480000  73.0770000  51.7650000
  10.0090000  74.0720000  52.2130000   8.7910000  73.1070000  50.5980000
   8.4040000  72.2420000  50.2490000   8.5990000  74.3430000  49.8090000
   9.5820000  74.7150000  49.5210000   7.8310000  74.0350000  48.5140000
   6.8650000  73.5890000  48.7490000   8.4060000  73.3260000  47.9190000
   7.6190000  75.2080000  47.7550000   6.6920000  75.4460000  47.8230000
   7.9170000  75.4560000  50.6250000   8.4300000  76.5740000  50.7150000
   6.7970000  75.1410000  51.2870000   6.4160000  74.2140000  51.1610000
   6.1040000  76.0530000  52.2050000   5.8250000  76.9460000  51.6450000
   4.8200000  75.3600000  52.6960000   4.2100000  75.0860000  51.8360000
   5.1050000  74.4370000  53.2030000   3.9690000  76.1970000  53.6690000
   4.5880000  76.5840000  54.4790000   3.2780000  77.3580000  52.9590000
   2.6490000  76.9880000  52.1490000   2.6620000  77.9050000  53.6730000
   4.0290000  78.0410000  52.5650000   2.9000000  75.2980000  54.2790000
   2.3050000  74.8340000  53.4920000   2.2550000  75.8790000  54.9380000
   3.3850000  74.5130000  54.8610000   7.0010000  76.5090000  53.3750000
   7.0860000  77.7010000  53.6670000   7.7040000  75.5770000  54.0240000
   7.5700000  74.6100000  53.7660000   8.6500000  75.8670000  55.0990000
   8.1110000  76.3840000  55.8930000   9.1720000  74.5410000  55.6670000
   8.3380000  73.9440000  56.0370000   9.8610000  74.7280000  56.4900000
   9.6980000  73.9820000  54.8930000   9.7850000  76.8000000  54.6390000
  10.1140000  77.7500000  55.3430000  10.3510000  76.5830000  53.4480000
  10.0770000  75.7600000  52.9310000  11.3350000  77.4730000  52.8310000
  12.1830000  77.5630000  53.5100000  11.8450000  76.8320000  51.5340000
  12.2930000  75.8630000  51.7540000  11.0280000  76.6970000  50.8260000
  12.6010000  77.4740000  51.0830000  10.7850000  78.8950000  52.6040000
  11.4620000  79.8680000  52.9380000   9.5510000  79.0310000  52.1000000
   9.0480000  78.2040000  51.8140000   8.8670000  80.3260000  52.0240000
   9.4860000  80.9950000  51.4260000   7.5220000  80.1640000  51.3010000
   7.6720000  79.6980000  50.3260000   6.8410000  79.5480000  51.8870000
   7.0650000  81.1420000  51.1550000   8.7210000  80.9900000  53.4100000
   9.0830000  82.1540000  53.5700000   8.2690000  80.2550000  54.4280000
   7.9310000  79.3250000  54.2250000   8.1670000  80.7400000  55.8110000
   7.5420000  81.6330000  55.8080000   7.4590000  79.6990000  56.6950000
   7.4940000  80.0620000  57.7220000   8.0200000  78.7650000  56.6500000
   5.9780000  79.4150000  56.3460000   5.3590000  80.1720000  55.5610000
   5.4070000  78.4640000  56.9380000   9.5240000  81.1690000  56.4180000
   9.6010000  82.2170000  57.0620000  10.6100000  80.4100000  56.1940000
  10.4760000  79.5350000  55.7080000  11.9950000  80.8320000  56.5050000
  12.0560000  81.0180000  57.5770000  13.0410000  79.7380000  56.1550000
  12.8850000  79.4300000  55.1210000  14.4850000  80.2640000  56.2830000
  14.6690000  81.0760000  55.5790000  14.6710000  80.6180000  57.2970000
  15.2010000  79.4770000  56.0480000  12.8710000  78.5040000  57.0650000
  11.8120000  78.2470000  57.0980000  13.1880000  78.7440000  58.0800000
  13.6160000  77.2520000  56.5820000  13.3230000  76.3980000  57.1930000
  14.6940000  77.3860000  56.6730000  13.3580000  77.0410000  55.5440000
  12.3170000  82.1630000  55.8170000  12.7390000  83.1080000  56.4780000
  12.0940000  82.2650000  54.5040000  11.7510000  81.4560000  54.0060000
  12.3610000  83.4780000  53.7300000  13.4110000  83.7400000  53.8630000
  12.1520000  83.1730000  52.2420000  11.1170000  82.8870000  52.0550000
  12.8060000  82.3560000  51.9380000  12.3940000  84.0550000  51.6490000
  11.5380000  84.6910000  54.2070000  12.0320000  85.8180000  54.1460000
  10.3240000  84.4920000  54.7400000   9.9230000  83.5660000  54.6890000
   9.5850000  85.5600000  55.4370000   9.4940000  86.3790000  54.7240000
   8.1480000  85.1650000  55.8440000   8.1710000  84.2380000  56.4180000
   7.4790000  86.2530000  56.6990000   7.5750000  87.2270000  56.2190000
   6.4180000  86.0380000  56.8260000   7.9370000  86.2880000  57.6870000
   7.2540000  84.9640000  54.6150000   6.2670000  84.6270000  54.9310000
   7.1500000  85.8990000  54.0640000   7.6730000  84.2020000  53.9580000
  10.4010000  86.1110000  56.6090000  10.6070000  87.3180000  56.6870000
  10.9190000  85.2480000  57.4880000  10.7430000  84.2620000  57.3580000
  11.8040000  85.6630000  58.5850000  11.2860000  86.3980000  59.2010000
  12.0270000  84.7980000  59.2100000  13.1320000  86.2870000  58.1310000
  13.5390000  87.3200000  58.6600000  13.8110000  85.6690000  57.1580000
  13.4250000  84.8050000  56.8030000  15.1570000  86.0740000  56.6960000
  15.7610000  86.2890000  57.5770000  15.8560000  84.9180000  55.9440000
  15.2280000  84.6110000  55.1070000  17.2410000  85.2880000  55.3970000
  17.1660000  86.0750000  54.6460000  17.8840000  85.6310000  56.2070000
  17.6980000  84.4190000  54.9230000  16.0730000  83.7100000  56.8660000
  16.5450000  82.8990000  56.3120000  16.7110000  83.9870000  57.7050000
  15.1210000  83.3450000  57.2510000  15.1490000  87.3630000  55.8590000
  16.0810000  88.1600000  55.9660000  14.1200000  87.5740000  55.0260000
  13.3910000  86.8760000  54.9920000  14.0530000  88.6710000  54.0460000
  14.8930000  89.3490000  54.2000000  14.1560000  88.1080000  52.6130000
  13.3520000  87.3860000  52.4700000  13.9980000  88.9240000  51.9080000
  15.4890000  87.4210000  52.2680000  15.6740000  86.6110000  52.9730000
  15.4100000  86.8140000  50.8690000  16.3550000  86.3320000  50.6190000
  15.1960000  87.5900000  50.1340000  14.6210000  86.0620000  50.8400000
  16.6720000  88.3900000  52.2970000  16.8260000  88.7660000  53.3080000
  16.4850000  89.2280000  51.6250000  17.5800000  87.8750000  51.9840000
  12.8020000  89.5430000  54.2000000  12.9310000  90.7430000  54.4280000
  11.5940000  88.9800000  54.0740000  11.5290000  87.9820000  53.9300000
  10.3790000  89.8030000  53.9890000  10.5320000  90.5150000  53.1780000
   9.1740000  88.9460000  53.6050000   8.8700000  88.3270000  54.4490000
   9.4110000  88.3360000  52.7330000   8.3400000  89.6050000  53.3610000
  10.0940000  90.6350000  55.2530000   9.6460000  91.7710000  55.1330000
  10.3820000  90.1160000  56.4510000  10.6950000  89.1570000  56.4940000
  10.2380000  90.8640000  57.7090000   9.2690000  91.3610000  57.6810000
  10.1960000  89.9190000  58.9310000  10.9710000  89.1580000  58.8380000
  10.4400000  90.7220000  60.2170000  11.4800000  91.0380000  60.2850000
  10.2140000  90.1270000  61.1020000   9.7960000  91.6010000  60.2050000
   8.8200000  89.2170000  58.9640000   8.0460000  89.9580000  59.1640000
   8.6190000  88.7810000  57.9860000   8.6970000  88.0960000  60.0000000
   9.5270000  87.3970000  59.8950000   8.6810000  88.5040000  61.0100000
   7.7690000  87.5500000  59.8310000  11.2650000  92.0090000  57.8070000
  10.8430000  93.1510000  57.9950000  12.5820000  91.7870000  57.6150000
  13.2920000  90.5210000  57.7390000  12.9920000  89.9820000  58.6380000
  13.1280000  89.9020000  56.8570000  14.7700000  90.8940000  57.8500000
  15.0180000  91.0980000  58.8910000  15.4210000  90.1160000  57.4500000
  14.8610000  92.1860000  57.0400000  15.7240000  92.7860000  57.3290000
  14.8900000  91.9520000  55.9760000  13.5450000  92.8710000  57.4110000
  13.6810000  93.3790000  58.3650000  13.0900000  93.9140000  56.3770000
  13.0990000  95.1040000  56.6790000  12.6140000  93.4990000  55.1980000
  12.6620000  92.5150000  54.9740000  12.0410000  94.4110000  54.1970000
  12.7910000  95.1610000  53.9440000  11.6970000  93.6400000  52.9140000
  10.9680000  92.8690000  53.1620000  11.1990000  94.3280000  52.2310000
  12.8360000  92.9810000  52.1440000  14.1970000  93.2590000  52.4030000
  14.4870000  93.9570000  53.1740000  15.2040000  92.6180000  51.6590000
  16.2430000  92.8280000  51.8660000  14.8640000  91.7080000  50.6440000
  15.6390000  91.2190000  50.0740000  13.5130000  91.4390000  50.3710000
  13.2530000  90.7450000  49.5850000  12.5060000  92.0730000  51.1210000
  11.4670000  91.8650000  50.9110000  10.8150000  95.1890000  54.7130000
  10.7170000  96.3920000  54.4760000   9.9040000  94.5510000  55.4530000
  10.0080000  93.5550000  55.5830000   8.7380000  95.1860000  56.0720000
   8.1990000  95.7300000  55.2960000   7.7950000  94.0970000  56.5850000
   7.5310000  93.4200000  55.7730000   8.2730000  93.5330000  57.3870000
   6.8840000  94.5540000  56.9690000   9.1060000  96.1910000  57.1870000
   8.4140000  97.1940000  57.3730000  10.2080000  95.9570000  57.9060000
  10.6680000  95.0680000  57.7700000  10.8160000  96.9100000  58.8480000
  10.0320000  97.3470000  59.4670000  11.8010000  96.1660000  59.7840000
  12.4300000  95.5170000  59.1750000  12.7320000  97.1480000  60.5210000
  13.3250000  96.6330000  61.2770000  13.4300000  97.6030000  59.8180000
  12.1480000  97.9370000  60.9950000  11.0210000  95.2800000  60.7860000
  10.2260000  94.7500000  60.2610000  10.5520000  95.9070000  61.5440000
  11.8920000  94.2170000  61.4690000  12.6560000  94.6830000  62.0920000
  12.3700000  93.5890000  60.7170000  11.2680000  93.5900000  62.1060000
  11.4760000  98.0760000  58.0880000  11.2960000  99.2380000  58.4440000
  12.2190000  97.7880000  57.0160000  12.4060000  96.8160000  56.8140000
  12.8180000  98.7940000  56.1250000  13.4780000  99.4250000  56.7210000
  13.6810000  98.1030000  55.0520000  13.1040000  97.2970000  54.5970000
  14.1640000  99.0180000  53.9330000  14.6020000  99.9280000  54.3420000
  13.3180000  99.2720000  53.2940000  14.9030000  98.5010000  53.3220000
  14.8350000  97.5440000  55.6430000  15.4150000  98.2610000  55.9070000
  11.7660000  99.7310000  55.5120000  11.9020000 100.9480000  55.6100000
  10.7000000  99.2000000  54.8990000  10.6340000  98.1940000  54.8280000
   9.6730000 100.0180000  54.2320000  10.2060000 100.7470000  53.6210000
   8.8360000  99.1500000  53.2650000   9.5290000  98.4890000  52.7440000
   7.8090000  98.2830000  54.0060000   7.4220000  97.5090000  53.3430000
   8.2900000  97.8030000  54.8580000   6.9780000  98.8880000  54.3680000
   8.1330000 100.0170000  52.2030000   7.2930000 100.5510000  52.6480000
   8.8460000 100.7540000  51.8320000   7.6420000  99.2170000  50.9920000
   7.2340000  99.9030000  50.2500000   6.8660000  98.5120000  51.2880000
   8.4770000  98.6750000  50.5470000   8.8090000 100.8390000  55.2110000
   8.3490000 101.9210000  54.8520000   8.6140000 100.3920000  56.4610000
   9.0120000  99.5080000  56.7460000   7.7850000 101.1260000  57.4350000
   6.8230000 101.3240000  56.9620000   7.5010000 100.2750000  58.6790000
   7.1100000  99.3060000  58.3680000   6.7440000 100.7690000  59.2900000
   8.6620000 100.0840000  59.4620000   8.7650000 100.8230000  60.0660000
   8.3680000 102.4880000  57.8450000   7.6180000 103.3630000  58.2800000
   9.6820000 102.7070000  57.6900000  10.2630000 101.9580000  57.3430000
  10.3260000 104.0050000  57.9800000   9.8940000 104.4120000  58.8940000
  11.8370000 103.8650000  58.2210000  12.2200000 104.8170000  58.5870000
  12.1920000 102.7810000  59.2370000  11.9570000 101.7930000  58.8410000
  13.2570000 102.8280000  59.4640000  11.6310000 102.9430000  60.1570000
  12.4820000 103.5590000  57.0090000  13.3910000 103.3320000  57.2160000
  10.1080000 105.0490000  56.8760000  10.3580000 106.2360000  57.1000000
   9.6520000 104.6390000  55.6850000   9.4210000 103.6630000  55.5640000
   9.4530000 105.5360000  54.5460000   8.8320000 105.0310000  53.8060000
   8.9120000 106.4230000  54.8770000  10.7380000 105.9970000  53.8530000
  10.6720000 106.9400000  53.0680000  11.8920000 105.3840000  54.1500000
  11.8550000 104.6290000  54.8200000  13.2320000 105.8150000  53.7130000
  13.4740000 106.7130000  54.2810000  14.2660000 104.7380000  54.0900000
  14.0700000 104.3740000  55.0990000  15.2450000 105.2160000  54.1180000
  14.3410000 103.5520000  53.1400000  13.2450000 102.6790000  52.9920000
  12.3550000 102.8130000  53.5890000  13.2910000 101.6430000  52.0440000
  12.4380000 100.9920000  51.9150000  14.4460000 101.4480000  51.2690000
  14.4820000 100.6560000  50.5370000  15.5580000 102.2880000  51.4440000
  16.4470000 102.1380000  50.8490000  15.5010000 103.3460000  52.3660000
  16.3480000 104.0080000  52.4690000  13.3420000 106.1670000  52.2140000
  12.6600000 105.5970000  51.3620000  14.2150000 107.1190000  51.8820000
  14.7740000 107.5460000  52.6080000  14.4490000 107.5340000  50.4980000
  13.4840000 107.7460000  50.0370000  15.2570000 108.8330000  50.5050000
  16.2160000 108.6440000  50.9880000  15.4600000 109.1280000  49.4760000
  14.4510000 110.2170000  51.3540000  15.1580000 106.4320000  49.6850000
  16.2080000 105.9310000  50.1000000  14.6190000 106.0910000  48.5090000
  13.7330000 106.5010000  48.2530000  15.1520000 105.0380000  47.6360000
  16.2390000 105.0240000  47.7080000  14.6040000 103.6880000  48.1240000
  13.5190000 103.6680000  48.0230000  14.8660000 103.5420000  49.1720000
  15.0320000 102.8750000  47.5370000  14.7760000 105.2610000  46.1640000
  13.7890000 105.9320000  45.8650000  15.5300000 104.6700000  45.2350000
  16.3370000 104.1410000  45.5310000  15.0960000 104.5240000  43.8430000
  14.9090000 105.5150000  43.4280000  16.2290000 103.8690000  43.0430000
  16.4490000 102.8790000  43.4410000  15.9380000 103.7770000  41.9970000
  17.1260000 104.4860000  43.1030000  13.7920000 103.7060000  43.7840000
  13.6790000 102.6680000  44.4400000  12.7930000 104.1590000  43.0210000
  12.9400000 105.0040000  42.4870000  11.4340000 103.6070000  43.1060000
  11.1270000 103.6710000  44.1490000  10.4770000 104.5070000  42.3110000
  10.6310000 105.5360000  42.6370000  10.7220000 104.4600000  41.2500000
   8.7140000 104.1340000  42.5350000  11.3460000 102.1150000  42.7310000
  10.6790000 101.3540000  43.4240000  12.0830000 101.6510000  41.7170000
  12.6360000 102.3000000  41.1760000  12.1280000 100.2190000  41.3700000
  11.1010000  99.8540000  41.3680000  12.6520000 100.0250000  39.9400000
  12.7890000  98.9590000  39.7550000  13.6220000 100.5100000  39.8350000
  11.7010000 100.5640000  38.8930000  11.6130000 101.8640000  38.4400000
  12.2470000 102.6210000  38.6520000  10.5810000 101.9410000  37.5810000
  10.2880000 102.8360000  37.0530000   9.9790000 100.7440000  37.4580000
  10.6870000  99.8650000  38.2900000  10.4610000  98.8210000  38.4500000
  12.8630000  99.3530000  42.4150000  12.4520000  98.2200000  42.6670000
  13.8780000  99.8950000  43.1010000  14.1840000 100.8260000  42.8570000
  14.4740000  99.2640000  44.2910000  14.8370000  98.2690000  44.0330000
  15.3190000  99.8600000  44.6350000  13.4700000  99.1380000  45.4440000
  13.3330000  98.0750000  46.0530000  12.7020000 100.2060000  45.6930000
  12.9060000 101.0620000  45.1960000  11.5870000 100.1940000  46.6410000
  11.9810000  99.9170000  47.6190000  10.9940000 101.6020000  46.7580000
  10.6200000 101.9190000  45.7840000  11.7710000 102.3020000  47.0670000
   9.6200000 101.6920000  47.9270000  10.5090000  99.1550000  46.2780000
  10.0470000  98.4310000  47.1580000  10.1380000  99.0240000  44.9950000
  10.4970000  99.6880000  44.3240000   9.1900000  97.9980000  44.5370000
   8.2500000  98.1480000  45.0680000   8.9230000  98.0910000  43.0230000
   8.4160000  97.1800000  42.7070000   9.8820000  98.1220000  42.5060000
   8.0640000  99.2760000  42.5630000   8.4830000 100.2120000  42.9320000
   8.0570000  99.2960000  41.0360000   7.5740000 100.2110000  40.6930000
   9.0760000  99.2970000  40.6500000   7.5280000  98.4270000  40.6440000
   6.6130000  99.1560000  43.0350000   6.5680000  99.1680000  44.1240000
   6.0360000 100.0010000  42.6600000   6.1680000  98.2290000  42.6730000
   9.6430000  96.5780000  44.8810000   8.8110000  95.8030000  45.3380000
  10.9210000  96.2230000  44.7100000  11.5630000  96.8790000  44.2880000
  11.4120000  94.9000000  45.1230000  10.8420000  94.1430000  44.5850000
  12.8900000  94.7220000  44.7510000  13.0110000  94.8700000  43.6780000
  13.4870000  95.4820000  45.2550000  13.4140000  93.3460000  45.1220000
  13.1220000  92.2390000  44.3020000  12.5600000  92.3740000  43.3900000
  13.5500000  90.9510000  44.6740000  13.3250000  90.1040000  44.0430000
  14.2670000  90.7660000  45.8690000  14.5900000  89.7760000  46.1580000
  14.5620000  91.8690000  46.6890000  15.1110000  91.7260000  47.6070000
  14.1370000  93.1570000  46.3170000  14.3570000  93.9980000  46.9590000
  11.1870000  94.6470000  46.6230000  10.5570000  93.6590000  47.0020000
  11.6480000  95.5770000  47.4680000  12.1390000  96.3620000  47.0640000
  11.4460000  95.5730000  48.9280000  11.9540000  94.7000000  49.3380000
  12.1070000  96.8320000  49.5420000  11.7720000  97.7020000  48.9780000
  11.7330000  97.0700000  51.0180000  12.1740000  96.2960000  51.6470000
  12.1040000  98.0410000  51.3460000  10.6520000  97.0770000  51.1530000
  13.6440000  96.7130000  49.4000000  13.9010000  96.4440000  48.3750000
  14.0090000  95.9170000  50.0500000  14.4020000  98.0030000  49.7200000
  15.4600000  97.8620000  49.5000000  14.2990000  98.2540000  50.7750000
  14.0190000  98.8170000  49.1040000   9.9560000  95.4150000  49.2860000
   9.5990000  94.5610000  50.0990000   9.0800000  96.2090000  48.6600000
   9.4420000  96.9120000  48.0320000   7.6290000  96.1180000  48.8100000
   7.3840000  96.2630000  49.8630000   6.9870000  97.2600000  48.0080000
   7.3940000  98.2210000  48.3230000   7.1770000  97.1310000  46.9420000
   5.9090000  97.2640000  48.1700000   7.0550000  94.7480000  48.3880000
   6.2460000  94.1640000  49.1090000   7.4550000  94.2300000  47.2210000
   8.1400000  94.7450000  46.6880000   6.7480000  93.1400000  46.5390000
   5.7200000  93.1040000  46.8970000   6.6930000  93.4520000  45.0350000
   6.1440000  92.6530000  44.5360000   7.7000000  93.4910000  44.6210000
   5.8400000  95.0260000  44.7160000   6.8750000  95.8020000  45.0490000
   7.3410000  91.7390000  46.7660000   6.6840000  90.7540000  46.4360000
   8.5130000  91.5930000  47.3910000   9.0740000  92.4140000  47.5720000
   9.1040000  90.2680000  47.6380000   9.1780000  89.7510000  46.6820000
  10.5280000  90.4230000  48.1790000  11.0980000  91.0610000  47.5030000
  10.4860000  90.9200000  49.1490000  11.2650000  89.1040000  48.3130000
  11.8060000  88.4920000  47.1660000  11.7130000  88.9700000  46.2020000
  12.4740000  87.2600000  47.2720000  12.8950000  86.7940000  46.3940000
  12.5990000  86.6340000  48.5230000  13.1140000  85.6880000  48.6040000
  12.0600000  87.2430000  49.6690000  12.1660000  86.7590000  50.6280000
  11.3920000  88.4770000  49.5680000  10.9800000  88.9380000  50.4530000
   8.2300000  89.3810000  48.5460000   8.0840000  88.1880000  48.2970000
   7.5340000  89.9600000  49.5340000   7.6900000  90.9410000  49.7180000
   6.5500000  89.2200000  50.3600000   7.0760000  88.3820000  50.8160000
   6.0210000  90.1090000  51.5070000   6.8750000  90.6060000  51.9670000
   5.0480000  91.2020000  51.0470000   5.4960000  91.8010000  50.2540000
   4.1130000  90.7670000  50.6940000   4.8230000  91.8600000  51.8860000
   5.3370000  89.2650000  52.5840000   5.0450000  89.9030000  53.4180000
   6.0230000  88.5040000  52.9570000   4.4500000  88.7770000  52.1810000
   5.4090000  88.6160000  49.5210000   4.9050000  87.5350000  49.8300000
   5.0320000  89.2770000  48.4190000   5.5300000  90.1220000  48.1790000
   4.0240000  88.7860000  47.4750000   3.1440000  88.4960000  48.0490000
   3.5870000  89.9070000  46.5070000   2.7320000  89.5470000  45.9350000
   4.3890000  90.0940000  45.7930000   3.2070000  91.2460000  47.1760000
   4.0630000  91.6370000  47.7240000   2.8260000  92.2670000  46.1090000
   1.9240000  91.9390000  45.5910000   3.6420000  92.3840000  45.3960000
   2.6330000  93.2320000  46.5770000   2.0290000  91.1070000  48.1400000
   1.1530000  90.7240000  47.6160000   2.2850000  90.4350000  48.9590000
   1.7940000  92.0830000  48.5640000   4.5130000  87.5310000  46.7330000
   3.7460000  86.5880000  46.5620000   5.8020000  87.4720000  46.3670000
   6.3790000  88.2780000  46.5570000   6.4530000  86.2440000  45.8590000
   5.9400000  85.9400000  44.9470000   7.9440000  86.4610000  45.5150000
   8.4950000  86.7470000  46.4110000   8.6060000  85.1810000  44.9920000
   8.6260000  84.4140000  45.7660000   8.0680000  84.8000000  44.1240000
   9.6380000  85.3900000  44.7120000   8.1160000  87.5780000  44.4810000
   7.5270000  87.3600000  43.5900000   7.7950000  88.5330000  44.8970000
   9.1680000  87.6650000  44.2100000   6.3010000  85.0980000  46.8590000
   5.7620000  84.0450000  46.5210000   6.7450000  85.3060000  48.1020000
   7.1710000  86.1960000  48.3150000   6.7020000  84.2680000  49.1380000
   7.2680000  83.4060000  48.7820000   7.3550000  84.7720000  50.4360000
   6.7600000  85.5930000  50.8370000   7.3200000  83.9580000  51.1590000
   8.8130000  85.2480000  50.3060000   8.8540000  86.1730000  49.7300000
   9.3330000  85.5220000  51.7100000   9.3420000  84.5900000  52.2740000
   8.6810000  86.2400000  52.2070000  10.3430000  85.9310000  51.6660000
   9.7220000  84.2110000  49.6490000  10.7600000  84.5360000  49.7140000
   9.6130000  83.2450000  50.1430000   9.4670000  84.1180000  48.5940000
   5.2780000  83.7650000  49.4010000   5.0450000  82.5590000  49.4070000
   4.3100000  84.6730000  49.5500000   4.5620000  85.6510000  49.5410000
   2.9160000  84.2820000  49.8290000   2.9440000  83.5480000  50.6340000
   2.0570000  85.4480000  50.3620000   1.2370000  85.0220000  50.9400000
   1.4400000  86.3500000  49.2960000   1.0000000  87.2290000  49.7660000
   0.6490000  85.8140000  48.7710000   2.2010000  86.6570000  48.5790000
   2.8150000  86.2580000  51.2330000   3.4480000  86.7640000  50.7190000
   2.2780000  83.5660000  48.6310000   1.5340000  82.6070000  48.8240000
   2.6290000  83.9400000  47.3920000   3.2210000  84.7490000  47.2670000
   2.2240000  83.1940000  46.1970000   1.1420000  83.0750000  46.2490000
   2.5590000  83.9940000  44.9250000   2.3050000  85.0440000  45.0730000
   3.6280000  83.9340000  44.7220000   1.7720000  83.4710000  43.7120000
   1.9690000  82.4070000  43.5760000   2.1070000  83.9900000  42.8140000
   0.2690000  83.7030000  43.8740000  -0.1750000  84.7470000  44.3260000
  -0.5670000  82.7460000  43.5410000  -1.5430000  82.9300000  43.7260000
  -0.2440000  81.8650000  43.1690000   2.8240000  81.7790000  46.1570000
   2.1230000  80.8240000  45.8260000   4.1020000  81.6310000  46.5180000
   4.6380000  82.4580000  46.7390000   4.7620000  80.3230000  46.6490000
   4.6930000  79.8010000  45.6950000   6.2500000  80.5090000  46.9620000
   6.7390000  81.0030000  46.1220000   6.3750000  81.1220000  47.8540000
   6.8440000  79.2520000  47.1830000   7.7900000  79.3810000  47.2840000
   4.0750000  79.4350000  47.6910000   3.8040000  78.2590000  47.4220000
   3.6990000  80.0030000  48.8430000   4.0320000  80.9310000  49.0610000
   2.8400000  79.3360000  49.8290000   3.3660000  78.4490000  50.1840000
   2.5720000  80.2290000  51.0470000   1.9790000  79.6750000  51.7750000
   2.0170000  81.1190000  50.7500000   3.8020000  80.6140000  51.6320000
   3.6450000  80.9430000  52.5200000   1.5320000  78.8590000  49.1960000
   1.2640000  77.6640000  49.2130000   0.7520000  79.7490000  48.5720000
   1.0420000  80.7160000  48.5820000  -0.5110000  79.4160000  47.8780000
  -1.2290000  79.0910000  48.6300000  -1.0890000  80.6790000  47.1980000
  -0.2850000  81.1780000  46.6550000  -2.2150000  80.3740000  46.1920000
  -1.8350000  79.7950000  45.3500000  -2.6220000  81.3000000  45.7880000
  -3.0150000  79.8180000  46.6810000  -1.6170000  81.6270000  48.2930000
  -2.6070000  81.3050000  48.6160000  -0.9590000  81.5910000  49.1610000
  -1.6760000  83.0840000  47.8410000  -2.3560000  83.1910000  46.9960000
  -2.0280000  83.6950000  48.6720000  -0.6850000  83.4320000  47.5490000
  -0.3610000  78.2360000  46.9100000  -1.1190000  77.2720000  47.0030000
   0.6230000  78.2720000  46.0070000   1.2050000  79.0960000  45.9530000
   0.8800000  77.1610000  45.0830000  -0.0490000  76.9160000  44.5690000
   1.9140000  77.5890000  44.0350000   2.8300000  77.8770000  44.5520000
   2.1420000  76.7190000  43.4200000   1.5110000  78.7110000  43.0890000
   0.1650000  78.9180000  42.7130000  -0.6300000  78.3090000  43.1170000
  -0.1640000  79.9000000  41.7650000  -1.1910000  80.0340000  41.4600000
   0.8470000  80.6780000  41.1800000   0.5890000  81.4020000  40.4210000
   2.1870000  80.4900000  41.5590000   2.9660000  81.0830000  41.1020000
   2.5170000  79.5060000  42.5070000   3.5520000  79.3410000  42.7680000
   1.3000000  75.8660000  45.7920000   0.8060000  74.7970000  45.4370000
   2.1390000  75.9460000  46.8300000   2.4990000  76.8560000  47.0820000
   2.5090000  74.7840000  47.6590000   2.9430000  74.0250000  47.0080000
   3.5780000  75.1600000  48.7020000   3.1670000  75.8760000  49.4140000
   3.8740000  74.2620000  49.2440000   4.7310000  75.7200000  48.0870000
   4.5110000  76.6110000  47.8030000   1.2750000  74.1550000  48.3290000
   1.0920000  72.9410000  48.2820000   0.3890000  74.9750000  48.9050000
   0.5940000  75.9640000  48.8970000  -0.8730000  74.5440000  49.5210000
  -0.6560000  73.7500000  50.2360000  -1.4930000  75.7310000  50.2830000
  -1.6660000  76.5440000  49.5780000  -2.4650000  75.4230000  50.6670000
  -0.6530000  76.2730000  51.4560000   0.3290000  76.5870000  51.1040000
  -1.3440000  77.4900000  52.0660000  -1.4410000  78.2720000  51.3130000
  -2.3350000  77.2170000  52.4260000  -0.7500000  77.8800000  52.8920000
  -0.4070000  75.2380000  52.5480000   0.1860000  74.4100000  52.1610000
  -1.3470000  74.8560000  52.9470000   0.1600000  75.7120000  53.3500000
  -1.8650000  73.9390000  48.5100000  -2.4540000  72.8920000  48.7810000
  -2.0140000  74.5470000  47.3280000  -1.5560000  75.4360000  47.1870000
  -2.8290000  74.0000000  46.2370000  -3.8310000  73.8230000  46.6290000
  -2.9270000  75.0460000  45.1080000  -3.3730000  75.9550000  45.5140000
  -1.9180000  75.2920000  44.7790000  -3.7390000  74.6080000  43.8730000
  -3.2760000  73.7260000  43.4310000  -5.2020000  74.2930000  44.1980000
  -5.6910000  75.1710000  44.6200000  -5.7240000  74.0070000  43.2850000
  -5.2660000  73.4600000  44.8980000  -3.7240000  75.7290000  42.8350000
  -4.2660000  75.4130000  41.9440000  -4.1930000  76.6260000  43.2400000
  -2.6960000  75.9580000  42.5530000  -2.3000000  72.6400000  45.7540000
  -3.0730000  71.6930000  45.6110000  -0.9840000  72.5190000  45.5630000
  -0.4000000  73.3370000  45.6700000  -0.3340000  71.2580000  45.2160000
  -0.7640000  70.9000000  44.2810000   1.1550000  71.5130000  44.9760000
   1.6220000  70.5860000  44.6450000   1.2860000  72.2680000  44.2010000
   1.6370000  71.8500000  45.8930000  -0.5750000  70.1690000  46.2770000
  -0.9620000  69.0570000  45.9270000  -0.4090000  70.4920000  47.5670000
  -0.0390000  71.4090000  47.7740000  -0.7720000  69.6230000  48.7010000
  -0.1530000  68.7270000  48.6500000  -0.4490000  70.3360000  50.0340000
  -0.7990000  71.3660000  49.9770000  -1.1430000  69.6720000  51.2260000
  -0.8450000  68.6260000  51.2920000  -0.8670000  70.1970000  52.1410000
  -2.2270000  69.7360000  51.1340000   1.0760000  70.3420000  50.2680000
   1.4140000  69.3380000  50.5250000   1.5590000  70.6230000  49.3320000
   1.5560000  71.3260000  51.3440000   2.6460000  71.3350000  51.3630000
   1.1990000  71.0260000  52.3300000   1.2010000  72.3310000  51.1160000
  -2.2300000  69.1330000  48.6200000  -2.4810000  67.9310000  48.7260000
  -3.1940000  70.0420000  48.4290000  -2.9400000  71.0190000  48.3860000
  -4.6070000  69.6840000  48.2840000  -4.9310000  69.1970000  49.2030000
  -5.4320000  70.9680000  48.1100000  -5.1980000  71.6730000  48.9090000
  -5.2150000  71.4380000  47.1510000  -6.4940000  70.7290000  48.1570000
  -4.8290000  68.6850000  47.1280000  -5.4570000  67.6430000  47.3130000
  -4.2720000  68.9770000  45.9470000  -3.7680000  69.8480000  45.8680000
  -4.3490000  68.1110000  44.7580000  -5.4000000  67.9120000  44.5520000
  -3.7710000  68.8520000  43.5290000  -2.7900000  69.2450000  43.7960000
  -3.5920000  67.9110000  42.3220000  -2.8680000  67.1290000  42.5520000
  -4.5450000  67.4510000  42.0580000  -3.2100000  68.4590000  41.4610000
  -4.6950000  70.0340000  43.1470000  -4.9770000  70.5890000  44.0420000
  -5.6120000  69.6510000  42.6980000  -4.0470000  71.0390000  42.1870000
  -3.8710000  70.5830000  41.2120000  -3.1010000  71.3900000  42.6000000
  -4.7150000  71.8900000  42.0530000  -3.6840000  66.7430000  45.0060000
  -4.2560000  65.7100000  44.6670000  -2.5060000  66.7110000  45.6270000
  -2.0710000  67.5910000  45.8640000  -1.8070000  65.4880000  46.0320000
  -1.5670000  64.9150000  45.1360000  -0.4770000  65.8840000  46.6900000
   0.2060000  66.2470000  45.9220000  -0.6470000  66.7030000  47.3900000
   0.1650000  64.7300000  47.4630000   1.0710000  64.0590000  46.9230000
  -0.2490000  64.5130000  48.6230000  -2.6810000  64.5700000  46.9150000
  -2.8470000  63.3880000  46.5940000  -3.2990000  65.1090000  47.9800000
  -3.1130000  66.0800000  48.1900000  -4.2320000  64.3530000  48.8410000
  -3.7490000  63.4240000  49.1440000  -4.5830000  65.1640000  50.1040000
  -5.3590000  64.6320000  50.6540000  -4.9980000  66.1250000  49.8010000
  -3.4090000  65.4240000  51.0720000  -2.6420000  66.0200000  50.5780000
  -3.7970000  66.0160000  51.9010000  -2.7680000  64.1540000  51.6610000
  -2.2560000  64.4270000  52.5840000  -3.5550000  63.4390000  51.9010000
  -1.7770000  63.5620000  50.7410000  -1.3600000  64.1660000  50.0460000
  -1.3240000  62.3260000  50.6860000  -1.7050000  61.3870000  51.5030000
  -1.3210000  60.4550000  51.4290000  -2.3480000  61.6080000  52.2500000
  -0.4640000  62.0450000  49.7610000  -0.0350000  61.1370000  49.6550000
  -0.1480000  62.8270000  49.2050000  -5.4910000  63.9030000  48.0900000
  -5.9480000  62.7780000  48.2870000  -6.0200000  64.7400000  47.1980000
  -5.6130000  65.6610000  47.1160000  -7.1210000  64.3880000  46.2950000
  -7.9740000  64.0740000  46.8980000  -7.5490000  65.6390000  45.5200000
  -6.6710000  66.1040000  45.0710000  -7.9470000  66.3530000  46.2410000
  -8.5840000  65.4420000  44.4290000  -9.9450000  65.3030000  44.7630000
 -10.2540000  65.2890000  45.7980000 -10.9100000  65.1980000  43.7420000
 -11.9550000  65.0740000  43.9820000 -10.5220000  65.2420000  42.3880000
 -11.4730000  65.1650000  41.4170000 -11.0760000  65.1020000  40.5450000
  -9.1560000  65.3640000  42.0550000  -8.8520000  65.3960000  41.0190000
  -8.1910000  65.4630000  43.0760000  -7.1480000  65.5760000  42.8170000
  -6.7840000  63.1880000  45.4010000  -7.5170000  62.2050000  45.4320000
  -5.6560000  63.2030000  44.6830000  -5.0870000  64.0380000  44.7090000
  -5.1810000  62.0560000  43.8860000  -5.9540000  61.8220000  43.1530000
  -3.8930000  62.3970000  43.0970000  -3.1290000  62.7100000  43.8090000
  -3.3780000  61.1630000  42.3280000  -2.4630000  61.4020000  41.7850000
  -4.1300000  60.8240000  41.6160000  -3.1520000  60.3430000  43.0110000
  -4.1380000  63.5430000  42.0850000  -4.7410000  64.3270000  42.5420000
  -4.6960000  63.1650000  41.2290000  -2.8420000  64.2020000  41.5920000
  -2.2440000  63.4950000  41.0160000  -2.2630000  64.5630000  42.4410000
  -3.0920000  65.0460000  40.9490000  -5.0210000  60.8000000  44.7610000
  -5.5330000  59.7400000  44.4020000  -4.3560000  60.9130000  45.9170000
  -3.9400000  61.8040000  46.1490000  -4.1500000  59.8020000  46.8510000
  -3.5380000  59.0490000  46.3550000  -3.3690000  60.3140000  48.0670000
  -3.9660000  61.0330000  48.6270000  -2.4440000  60.7910000  47.7430000
  -3.1220000  59.4760000  48.7190000  -5.4620000  59.1090000  47.2770000
  -5.5220000  57.8800000  47.3280000  -6.5070000  59.8920000  47.5750000
  -6.3570000  60.8900000  47.5600000  -7.8260000  59.4030000  48.0140000
  -7.6710000  58.5140000  48.6250000  -8.4820000  60.4660000  48.9300000
  -8.4070000  61.4370000  48.4400000  -9.9740000  60.1910000  49.1990000
 -10.3880000  60.9530000  49.8590000 -10.0970000  59.2130000  49.6640000
 -10.5420000  60.2200000  48.2700000  -7.6880000  60.5100000  50.2620000
  -7.8790000  59.5940000  50.8220000  -6.6190000  60.5500000  50.0540000
  -7.9970000  61.7120000  51.1580000  -7.2980000  61.7300000  51.9940000
  -9.0090000  61.6360000  51.5560000  -7.8790000  62.6330000  50.5870000
  -8.7060000  58.9410000  46.8340000  -9.3340000  57.8820000  46.9130000
  -8.7730000  59.7110000  45.7350000  -8.2400000  60.5690000  45.7300000
  -9.5840000  59.3950000  44.5380000 -10.5770000  59.0820000  44.8600000
  -9.7060000  60.6270000  43.6150000 -10.1230000  60.3080000  42.6600000
  -8.7100000  61.0180000  43.4060000 -10.5810000  61.7730000  44.1400000
 -10.6250000  62.5350000  43.3620000 -10.1160000  62.2110000  45.0230000
 -12.0150000  61.3640000  44.4970000 -11.9740000  60.6830000  45.3470000
 -12.5600000  62.2510000  44.8200000 -12.7130000  60.6900000  43.3790000
 -12.4780000  59.7200000  43.2230000 -13.6440000  61.1820000  42.5790000
 -14.0690000  62.4090000  42.6680000 -14.7880000  62.7510000  42.0470000
 -13.6720000  63.0220000  43.3660000 -14.1770000  60.4330000  41.6590000
 -13.8810000  59.4740000  41.5450000 -14.8910000  60.8020000  41.0460000
  -9.0490000  58.2300000  43.7040000  -9.8480000  57.4450000  43.1970000
  -7.7250000  58.1200000  43.5630000  -7.1500000  58.8000000  44.0390000
  -7.0420000  57.2080000  42.6240000  -7.7450000  56.4520000  42.2760000
  -6.5370000  58.0040000  41.3750000  -5.6790000  58.5970000  41.6920000
  -6.0620000  57.0680000  40.2450000  -6.8560000  56.3770000  39.9610000
  -5.1880000  56.4940000  40.5540000  -5.7740000  57.6550000  39.3740000
  -7.5340000  59.0220000  40.7660000  -7.8620000  59.7210000  41.5360000
  -7.0000000  59.6210000  40.0280000  -8.7680000  58.4290000  40.0720000
  -9.4630000  59.2330000  39.8280000  -9.2680000  57.7090000  40.7190000
  -8.4760000  57.9330000  39.1460000  -5.8930000  56.4670000  43.3550000
  -4.7340000  56.5640000  42.9460000  -6.1570000  55.6810000  44.4260000
  -7.4550000  55.3220000  44.9920000  -7.8610000  54.4640000  44.4550000
  -8.1760000  56.1390000  44.9800000  -7.1810000  54.9390000  46.4420000
  -7.1670000  55.8350000  47.0620000  -7.9170000  54.2280000  46.8170000
  -5.7850000  54.3270000  46.3800000  -5.8750000  53.2660000  46.1470000
  -5.2520000  54.4580000  47.3220000  -5.0880000  55.0730000  45.2330000
  -4.4720000  55.8700000  45.6500000  -4.1960000  54.1210000  44.4230000
  -2.9750000  54.1080000  44.5830000  -4.8130000  53.3580000  43.5090000
  -5.8220000  53.3930000  43.4820000  -4.1490000  52.3720000  42.6490000
  -3.6210000  51.6840000  43.3090000  -5.2060000  51.5370000  41.8900000
  -4.7000000  50.6330000  41.5510000  -5.9770000  51.2190000  42.5920000
  -5.8780000  52.1730000  40.6530000  -5.1130000  52.4860000  39.9410000
  -6.7610000  51.1330000  39.9660000  -7.2080000  51.5610000  39.0690000
  -7.5510000  50.8070000  40.6420000  -6.1580000  50.2720000  39.6760000
  -6.7660000  53.3760000  40.9850000  -7.5140000  53.0980000  41.7270000
  -7.2740000  53.7140000  40.0820000  -6.1650000  54.2060000  41.3560000
  -3.0850000  52.9690000  41.7090000  -2.1140000  52.2830000  41.3870000
  -3.2530000  54.2310000  41.2780000  -4.0730000  54.7260000  41.5990000
  -2.3400000  54.9090000  40.3330000  -1.5200000  54.2230000  40.1190000
  -3.0770000  55.1900000  39.0000000  -3.1640000  56.2640000  38.8400000
  -4.0920000  54.7960000  39.0520000  -2.4030000  54.5500000  37.7720000
  -2.4230000  53.4660000  37.8830000  -2.9910000  54.8080000  36.8910000
  -0.9500000  54.9980000  37.5490000  -0.3330000  54.6260000  38.3670000
  -0.8890000  56.0860000  37.5680000  -0.3980000  54.4780000  36.2820000
   0.1230000  53.6150000  36.3430000  -0.4750000  55.0240000  35.0800000
  -1.1460000  56.1170000  34.8480000  -1.6650000  56.5500000  35.5970000
  -1.1830000  56.5080000  33.9180000   0.1310000  54.4710000  34.0700000
   0.6660000  53.6240000  34.2000000   0.0800000  54.8870000  33.1510000
  -1.6410000  56.1490000  40.8970000  -0.7420000  56.6640000  40.2420000
  -1.9610000  56.5770000  42.1200000  -2.7580000  56.1500000  42.5700000
  -1.3230000  57.6990000  42.8270000  -1.5990000  58.6240000  42.3200000
  -1.8870000  57.7650000  44.2590000  -2.0590000  56.7500000  44.6150000
  -2.8610000  58.2540000  44.2280000  -1.0080000  58.4700000  45.2800000
  -0.8830000  59.8740000  45.2830000  -1.4240000  60.4720000  44.5650000
  -0.0480000  60.5060000  46.2270000   0.0490000  61.5810000  46.2410000
   0.6720000  59.7330000  47.1640000   1.4770000  60.3350000  48.0800000
   2.0950000  59.7100000  48.4670000   0.5460000  58.3280000  47.1590000
   1.0940000  57.7320000  47.8730000  -0.2960000  57.7020000  46.2220000
  -0.3880000  56.6260000  46.2270000   0.2130000  57.6320000  42.8020000
   0.8450000  58.5720000  42.3310000   0.8210000  56.5080000  43.2020000
   0.2530000  55.7590000  43.5730000   2.2850000  56.3520000  43.1860000
   2.7240000  57.2020000  43.7080000   2.6750000  55.0740000  43.9480000
   3.7440000  54.8980000  43.8240000   2.1500000  54.2160000  43.5270000
   2.4090000  55.1780000  45.4420000   2.9750000  56.0070000  46.1410000
   1.5530000  54.3410000  45.9850000   1.1070000  53.6240000  45.4310000
   1.3970000  54.3980000  46.9810000   2.8870000  56.3670000  41.7630000
   4.0480000  56.7420000  41.5900000   2.1090000  55.9780000  40.7430000
   1.1680000  55.6780000  40.9530000   2.4880000  56.0790000  39.3280000
   3.5020000  55.7010000  39.1980000   1.8230000  55.4550000  38.7320000
   2.4270000  57.5080000  38.7730000   3.3460000  57.9320000  38.0710000
   1.3580000  58.2590000  39.0800000   0.6240000  57.8210000  39.6160000
   1.1980000  59.6830000  38.7250000   1.3720000  59.8130000  37.6570000
  -0.2380000  60.1530000  39.0640000  -0.6300000  59.5770000  39.9030000
  -0.1890000  61.1930000  39.3890000  -1.2410000  60.1200000  37.9010000
  -0.8690000  60.7480000  37.0910000  -1.4730000  58.7130000  37.3660000
  -2.2190000  58.7450000  36.5710000  -1.8290000  58.0740000  38.1750000
  -0.5410000  58.3200000  36.9600000  -2.5830000  60.6780000  38.3770000
  -2.4520000  61.7010000  38.7280000  -3.2950000  60.6820000  37.5520000
  -2.9770000  60.0670000  39.1900000   2.1980000  60.5890000  39.4610000
   2.8500000  61.4360000  38.8500000   2.2840000  60.4300000  40.7800000
   1.7520000  59.6740000  41.1880000   2.8400000  61.4120000  41.7180000
   2.9790000  62.3620000  41.2020000   1.8470000  61.6650000  42.8780000
   1.7320000  60.7600000  43.4740000   2.3550000  62.7750000  43.7930000
   3.2690000  62.4490000  44.2900000   2.5400000  63.6830000  43.2190000
   1.6130000  62.9830000  44.5640000   0.4580000  62.0860000  42.3730000
  -0.1800000  62.3520000  43.2160000   0.5410000  62.9410000  41.7020000
  -0.0140000  61.2550000  41.8490000   4.2060000  60.9340000  42.2180000
   4.2920000  60.0690000  43.0920000   5.2840000  61.4860000  41.6490000
   5.1520000  62.1990000  40.9460000   6.6720000  61.0410000  41.8920000
   6.6870000  60.3210000  42.7100000   7.2550000  60.3450000  40.6450000
   8.2380000  59.9490000  40.9000000   6.3890000  59.1900000  40.1400000
   5.4180000  59.5540000  39.8050000   6.8860000  58.6900000  39.3080000
   6.2410000  58.4670000  40.9420000   7.4020000  61.2670000  39.5870000
   7.7460000  60.7860000  38.8310000   7.5670000  62.2130000  42.3000000
   7.2940000  63.3640000  41.9600000   8.6580000  61.9360000  43.0230000
   8.8270000  60.9780000  43.2940000   9.5910000  62.9570000  43.5300000
  10.3910000  62.4650000  44.0830000   9.0610000  63.6140000  44.2200000
  10.2330000  63.8240000  42.4440000  10.4150000  65.0240000  42.6390000
  10.5370000  63.2390000  41.2790000  10.3580000  62.2480000  41.1990000
  11.0590000  63.9730000  40.1040000  11.9330000  64.5440000  40.4180000
  11.5350000  63.0110000  38.9980000  10.7290000  62.3240000  38.7380000
  12.0030000  63.7260000  37.7280000  12.7570000  64.4730000  37.9750000
  12.4320000  63.0000000  37.0370000  11.1610000  64.2090000  37.2340000
  12.6480000  62.2730000  39.4600000  12.3580000  61.6930000  40.1670000
  10.0390000  64.9870000  39.5770000  10.3650000  66.1630000  39.4040000
   8.7810000  64.5610000  39.3750000   8.5590000  63.5950000  39.5690000
   7.6890000  65.4620000  38.9560000   8.0000000  66.0060000  38.0640000
   6.4270000  64.6570000  38.6070000   6.1520000  64.0260000  39.4520000
   5.6060000  65.3480000  38.4110000   6.6430000  63.7900000  37.3570000
   7.4890000  63.1220000  37.5170000   6.8570000  64.4290000  36.5000000
   5.4010000  62.9460000  37.0640000   4.5910000  63.5980000  36.7370000
   5.1040000  62.4600000  37.9930000   5.6830000  61.9370000  36.0210000
   6.2530000  62.2350000  35.2420000   5.3040000  60.6720000  36.0240000
   4.5210000  60.2030000  36.9480000   4.2660000  59.2270000  36.9980000
   4.1270000  60.8430000  37.6220000   5.7050000  59.8500000  35.0990000
   6.3100000  60.1740000  34.3580000   5.4040000  58.8860000  35.1070000
   7.4010000  66.5260000  40.0130000   7.2620000  67.6950000  39.6720000
   7.3990000  66.1460000  41.2920000   7.4750000  65.1580000  41.4860000
   7.2260000  67.0570000  42.4240000   6.2410000  67.5170000  42.3420000
   7.2530000  66.2490000  43.7230000   7.0280000  66.9050000  44.5640000
   8.2360000  65.8020000  43.8760000   6.5030000  65.4590000  43.6670000
   8.2570000  68.1970000  42.4390000   7.8580000  69.3600000  42.4720000
   9.5670000  67.9060000  42.3490000   9.8560000  66.9380000  42.3530000
  10.5890000  68.9750000  42.3090000  10.3830000  69.6370000  43.1490000
  12.0180000  68.4500000  42.5450000  12.0350000  67.9100000  43.4920000
  12.6700000  69.3180000  42.6520000  12.5960000  67.5470000  41.4430000
  12.1120000  66.5710000  41.4860000  12.3940000  67.9850000  40.4660000
  14.1210000  67.3680000  41.5550000  14.4580000  66.7110000  40.7530000
  14.5850000  68.3410000  41.3890000  14.6290000  66.8280000  42.9020000
  14.2650000  67.4680000  43.7060000  15.7170000  66.9020000  42.9010000
  14.2340000  65.4120000  43.1430000  14.6320000  65.0770000  44.0090000
  13.2320000  65.3050000  43.2090000  14.5780000  64.8080000  42.4100000
  10.4670000  69.8680000  41.0670000  10.6350000  71.0820000  41.1780000
  10.0950000  69.2960000  39.9170000  10.0120000  68.2900000  39.8930000
   9.7490000  70.0500000  38.7030000  10.6210000  70.6100000  38.3650000
   9.4640000  69.3530000  37.9150000   8.5920000  71.0310000  38.9230000
   8.7330000  72.2250000  38.6560000   7.4680000  70.5450000  39.4630000
   7.4210000  69.5500000  39.6310000   6.3070000  71.3610000  39.8560000
   5.9330000  71.8590000  38.9610000   5.1550000  70.4850000  40.4050000
   5.5520000  69.8660000  41.2100000   4.0100000  71.3470000  40.9740000
   4.3570000  71.9560000  41.8090000   3.6190000  72.0080000  40.2010000
   3.2010000  70.7170000  41.3430000   4.5840000  69.5650000  39.2990000
   3.9200000  70.1370000  38.6500000   5.3910000  69.1830000  38.6740000
   3.8230000  68.3530000  39.8530000   4.4670000  67.7790000  40.5190000
   2.9350000  68.6760000  40.3970000   3.5120000  67.7140000  39.0270000
   6.7240000  72.4740000  40.8280000   6.4450000  73.6370000  40.5590000
   7.4180000  72.1430000  41.9260000   7.6010000  71.1630000  42.0870000
   7.9460000  73.1180000  42.9020000   7.0940000  73.6070000  43.3740000
   8.7470000  72.4050000  44.0240000   9.4650000  71.7300000  43.5570000
   9.5320000  73.3980000  44.9020000  10.2830000  73.9230000  44.3130000
   8.8500000  74.1200000  45.3520000  10.0630000  72.8700000  45.6940000
   7.7910000  71.5800000  44.9150000   7.1820000  72.2550000  45.5150000
   7.1180000  71.0060000  44.2780000   8.4800000  70.5710000  45.8440000
   9.1370000  69.9210000  45.2680000   9.0550000  71.0860000  46.6140000
   7.7190000  69.9600000  46.3300000   8.7440000  74.2350000  42.2060000
   8.4350000  75.4110000  42.3960000   9.7350000  73.8900000  41.3770000
   9.9490000  72.9100000  41.2560000  10.5300000  74.8630000  40.6240000
  11.0450000  75.5070000  41.3370000  11.5950000  74.1110000  39.8180000
  12.2250000  73.5290000  40.4900000  11.1250000  73.4390000  39.0990000
  12.2190000  74.8260000  39.2810000   9.6660000  75.7790000  39.7300000
   9.7970000  77.0040000  39.7920000   8.7600000  75.1960000  38.9330000
   8.7180000  74.1870000  38.9320000   7.7670000  75.9240000  38.1240000
   8.3070000  76.5420000  37.4070000   6.8860000  74.9370000  37.3180000
   6.5110000  74.1730000  37.9990000   5.6710000  75.6390000  36.6830000
   5.0960000  74.9370000  36.0800000   5.0030000  76.0210000  37.4560000
   5.9990000  76.4640000  36.0510000   7.7290000  74.2490000  36.2180000
   7.9080000  74.9500000  35.4030000   8.7000000  73.9630000  36.6210000
   7.0830000  72.9760000  35.6570000   7.7750000  72.5010000  34.9610000
   6.1630000  73.2140000  35.1220000   6.8630000  72.2800000  36.4670000
   6.9440000  76.8930000  38.9880000   6.8570000  78.0790000  38.6660000
   6.3590000  76.4160000  40.0910000   6.4470000  75.4310000  40.2980000
   5.5920000  77.2410000  41.0200000   4.7460000  77.6710000  40.4830000
   5.0410000  76.3680000  42.1570000   5.8520000  75.7970000  42.6080000
   4.5990000  77.0050000  42.9230000   3.7740000  75.2310000  41.5150000
   2.8570000  76.1490000  41.1970000   6.4080000  78.4220000  41.5620000
   5.9170000  79.5420000  41.4920000   7.6560000  78.2230000  42.0040000
   8.0160000  77.2800000  42.0370000   8.5290000  79.3250000  42.4350000
   8.0270000  79.8640000  43.2390000   9.8420000  78.7730000  43.0050000
  10.1790000  77.9250000  42.4100000  10.6030000  79.5490000  42.9280000
   9.7700000  78.3810000  44.4500000   9.6490000  77.1270000  44.9380000
   9.5940000  76.2340000  44.3340000   9.5710000  77.1630000  46.3170000
   9.3550000  76.3520000  46.8800000   9.6970000  78.4490000  46.7930000
   9.6890000  79.0000000  48.0840000   9.6210000  78.3570000  48.9490000
   9.7690000  80.3950000  48.2300000   9.7860000  80.8400000  49.2140000
   9.8350000  81.2180000  47.0920000   9.9030000  82.2900000  47.2070000
   9.8390000  80.6560000  45.8020000   9.9020000  81.2990000  44.9370000
   9.7790000  79.2570000  45.6190000   8.7790000  80.3610000  41.3290000
   8.6240000  81.5570000  41.5770000   9.1100000  79.9350000  40.1030000
   9.2290000  78.9420000  39.9620000   9.2210000  80.8260000  38.9280000
  10.0200000  81.5420000  39.1230000   9.6150000  80.0340000  37.6630000
   8.9550000  79.1740000  37.5530000   9.5270000  80.8710000  36.3810000
   9.8970000  80.2910000  35.5350000  10.1250000  81.7760000  36.4810000
   8.4910000  81.1410000  36.1730000  11.0600000  79.5320000  37.7780000
  11.1820000  78.9210000  38.6720000  11.3110000  78.9230000  36.9100000
  11.7480000  80.3760000  37.8330000   7.9490000  81.6620000  38.7200000
   8.0220000  82.8890000  38.6110000   6.7760000  81.0170000  38.7070000
   6.7860000  80.0120000  38.8040000   5.4760000  81.6950000  38.6120000
   5.4710000  82.3040000  37.7080000   4.3430000  80.6540000  38.5110000
   3.3850000  81.1670000  38.5920000   4.4240000  79.9730000  39.3580000
   4.3390000  79.8280000  37.2100000   5.3300000  79.4150000  37.0240000
   3.3500000  78.6710000  37.3440000   3.3570000  78.0720000  36.4330000
   2.3450000  79.0540000  37.5170000   3.6410000  78.0350000  38.1810000
   3.9290000  80.6690000  35.9990000   2.9500000  81.1160000  36.1660000
   3.8870000  80.0370000  35.1120000   4.6620000  81.4570000  35.8230000
   5.2350000  82.6660000  39.7800000   4.7490000  83.7740000  39.5620000
   5.6080000  82.2990000  41.0100000   5.9500000  81.3590000  41.1510000
   5.5400000  83.1840000  42.1790000   4.5040000  83.5000000  42.3050000
   5.9790000  82.4700000  43.4600000   7.0380000  82.2160000  43.4070000
   5.8310000  83.1420000  44.3060000   5.2350000  81.2890000  43.6640000
   4.2970000  81.4590000  43.5550000   6.3720000  84.4540000  42.0090000
   5.8770000  85.5320000  42.3300000   7.6050000  84.3570000  41.4970000
   7.9740000  83.4400000  41.2900000   8.4160000  85.5350000  41.1580000
   8.5190000  86.1520000  42.0510000   9.8340000  85.1240000  40.7280000
  10.2400000  85.8970000  40.0750000   9.7990000  84.2010000  40.1500000
  10.7920000  84.9690000  41.8960000  11.3640000  86.1170000  42.4770000
  11.1310000  87.0950000  42.0820000  12.2400000  85.9990000  43.5700000
  12.6790000  86.8840000  44.0070000  12.5440000  84.7290000  44.0920000
  13.2160000  84.6360000  44.9330000  11.9810000  83.5790000  43.5110000
  12.2200000  82.6030000  43.9070000  11.1120000  83.6990000  42.4110000
  10.6970000  82.8090000  41.9600000   7.7270000  86.4210000  40.1120000
   7.5720000  87.6210000  40.3430000   7.2580000  85.8380000  39.0030000
   7.4250000  84.8510000  38.8710000   6.5520000  86.5660000  37.9430000
   7.2290000  87.3190000  37.5390000   6.2150000  85.5820000  36.8160000
   5.7470000  86.1200000  35.9910000   7.1270000  85.1080000  36.4530000
   5.5280000  84.8140000  37.1730000   5.2990000  87.3070000  38.4560000
   5.1220000  88.4990000  38.1920000   4.4460000  86.6220000  39.2270000
   4.6340000  85.6400000  39.3750000   3.2360000  87.1980000  39.8350000
   2.6620000  87.6990000  39.0560000   2.3470000  86.0790000  40.4260000
   2.9830000  85.4130000  41.0080000   1.2470000  86.6180000  41.3630000
   0.6240000  85.8030000  41.7310000   0.6080000  87.3230000  40.8300000
   1.6800000  87.1110000  42.2340000   1.7090000  85.2780000  39.2680000
   2.4580000  85.0770000  38.5020000   0.9140000  85.8650000  38.8090000
   1.1480000  83.9230000  39.7060000   0.3000000  84.0530000  40.3780000
   0.8120000  83.3750000  38.8260000   1.9290000  83.3490000  40.2040000
   3.6090000  88.2730000  40.8610000   3.2170000  89.4260000  40.7040000
   4.3920000  87.9200000  41.8870000   4.7410000  86.9730000  41.9290000
   4.7280000  88.8200000  42.9940000   3.8100000  89.0940000  43.5140000
   5.3760000  88.3000000  43.7000000   5.4280000  90.1070000  42.5530000
   5.0790000  91.1790000  43.0390000   6.3580000  90.0200000  41.5940000
   6.5860000  89.1070000  41.2260000   7.1290000  91.1650000  41.0840000
   7.0880000  91.9690000  41.8190000   8.6160000  90.7850000  40.9170000
   8.7060000  90.0810000  40.0900000   9.1650000  91.6850000  40.6390000
   9.3020000  90.1700000  42.1530000   8.8720000  89.1870000  42.3430000
  10.7920000  89.9910000  41.8740000  11.2610000  90.9600000  41.7010000
  10.9280000  89.3670000  40.9910000  11.2720000  89.5080000  42.7260000
   9.1570000  91.0250000  43.4160000   9.7400000  90.5870000  44.2270000
   9.5160000  92.0370000  43.2270000   8.1130000  91.0580000  43.7270000
   6.5470000  91.7660000  39.7890000   7.1850000  92.6200000  39.1780000
   5.3150000  91.4080000  39.4030000   4.8370000  90.7010000  39.9430000
   4.5640000  92.0640000  38.3100000   5.0380000  91.7690000  37.3730000
   3.1140000  91.5430000  38.2530000   2.7350000  91.4300000  39.2690000
   2.1290000  92.4210000  37.4770000   2.5100000  92.6200000  36.4750000
   1.9690000  93.3620000  38.0040000   1.1690000  91.9100000  37.4010000
   3.1110000  90.2880000  37.6100000   3.7980000  89.7480000  38.0070000
   4.6400000  93.6040000  38.3340000   4.8540000  94.1850000  37.2680000
   4.5690000  94.3010000  39.4910000   4.0950000  93.8310000  40.7870000
   4.9270000  93.4240000  41.3610000   3.3080000  93.0850000  40.6810000
   3.5560000  95.0740000  41.4920000   3.5800000  94.9690000  42.5770000
   2.5470000  95.2910000  41.1420000   4.5130000  96.1560000  41.0010000
   4.0810000  97.1520000  41.0960000   5.4480000  96.0890000  41.5570000
   4.7320000  95.7570000  39.5360000   3.9350000  96.1830000  38.9260000
   6.0680000  96.2760000  38.9880000   6.1040000  97.3180000  38.3360000
   7.1680000  95.5400000  39.1740000   7.0770000  94.6430000  39.6300000
   8.4910000  95.8990000  38.6310000   8.7070000  96.9300000  38.9090000
   9.5850000  95.0110000  39.2450000  10.5420000  95.2860000  38.8010000
   9.3910000  93.9650000  39.0040000   9.6870000  95.1740000  40.7670000
   9.9340000  96.2110000  40.9930000   8.7190000  94.9500000  41.2150000
  10.9130000  94.1030000  41.5650000  12.4530000  94.8080000  40.9130000
  13.3050000  94.2860000  41.3510000  12.5120000  95.8660000  41.1700000
  12.4910000  94.6920000  39.8300000   8.5510000  95.8360000  37.0920000
   9.4150000  96.4700000  36.4870000   7.6200000  95.1130000  36.4530000
   6.9370000  94.6180000  37.0090000   7.4910000  95.0230000  34.9910000
   8.4910000  94.9540000  34.5620000   6.7280000  93.7370000  34.6050000
   5.6740000  93.8730000  34.8490000   6.7930000  93.6170000  33.5230000
   7.2170000  92.4340000  35.2700000   7.1070000  92.5100000  36.3510000
   6.3660000  91.2580000  34.7920000   6.6700000  90.3490000  35.3110000
   6.4890000  91.1190000  33.7180000   5.3150000  91.4500000  35.0080000
   8.6790000  92.1260000  34.9480000   9.3230000  92.9060000  35.3540000
   8.8210000  92.0660000  33.8690000   8.9640000  91.1770000  35.4020000
   6.8310000  96.2690000  34.3580000   6.8470000  96.4090000  33.1330000
   6.2670000  97.1760000  35.1700000   6.3210000  97.0120000  36.1650000
   5.7010000  98.4580000  34.7210000   5.5500000  98.4440000  33.6410000
   6.4180000  99.2490000  34.9400000   4.3620000  98.8430000  35.3580000
   3.9900000 100.0170000  35.3200000   3.6380000  97.8940000  35.9690000
   3.9750000  96.9420000  35.9490000   2.3770000  98.1710000  36.6740000
   1.8380000  98.9400000  36.1210000   1.4780000  96.9200000  36.6660000
   1.4520000  96.5330000  35.6480000   1.9340000  96.1510000  37.2890000
   0.0450000  97.0910000  37.1020000  -0.5510000  98.2340000  37.5250000
  -0.0720000  99.1970000  37.6150000  -1.8700000  97.9860000  37.8510000
  -2.4800000  98.6660000  38.2820000  -2.2230000  96.6860000  37.5750000
  -3.4320000  95.9840000  37.6810000  -4.3250000  96.4850000  38.0220000
  -3.4620000  94.6250000  37.3300000  -4.3880000  94.0730000  37.3900000
  -2.2840000  93.9880000  36.8970000  -2.3090000  92.9410000  36.6310000
  -1.0740000  94.7040000  36.7960000  -0.1810000  94.2050000  36.4510000
  -1.0120000  96.0770000  37.1250000   2.6650000  98.7360000  38.0770000
   2.5190000  98.0600000  39.0930000   3.1120000  99.9920000  38.1270000
   3.2260000 100.4820000  37.2520000   3.5500000 100.6760000  39.3450000
   2.9980000 100.2670000  40.1910000   5.0360000 100.3660000  39.5890000
   5.1600000  99.2880000  39.6880000   5.3400000 100.8120000  40.5370000
   5.9630000 100.8970000  38.5050000   6.0370000 102.0920000  38.2690000
   6.7170000 100.0460000  37.8520000   7.4420000 100.4140000  37.2520000
   6.6410000  99.0580000  38.0470000   3.2590000 102.1880000  39.3190000
   2.9180000 102.7540000  38.2780000   3.4180000 102.8460000  40.4730000
   3.6500000 102.3200000  41.3040000   3.2090000 104.2930000  40.6180000
   2.4600000 104.6210000  39.8980000   2.6610000 104.5930000  42.0250000
   2.4330000 105.6550000  42.1050000   3.4580000 104.3770000  42.7370000
   1.4160000 103.8290000  42.4510000   0.6210000 103.3430000  41.6600000
   1.2100000 103.7260000  43.7430000   1.8510000 104.1960000  44.3660000
   0.3900000 103.2450000  44.0840000   4.4820000 105.1310000  40.3580000
   4.4490000 106.3470000  40.5300000   5.6100000 104.5330000  39.9470000
   5.5960000 103.5470000  39.7250000   6.8980000 105.2380000  39.8360000
   7.0860000 105.7300000  40.7910000   8.0370000 104.2340000  39.6050000
   8.9720000 104.7870000  39.5180000   7.8770000 103.7200000  38.6580000
   8.2370000 102.9990000  40.9190000   6.9120000 106.3540000  38.7720000
   7.7160000 107.2800000  38.8680000   6.0020000 106.3010000  37.7900000
   5.4160000 105.4810000  37.7270000   5.7700000 107.3840000  36.8220000
   6.7280000 107.7320000  36.4350000   5.2000000 106.9880000  35.9820000
   5.0070000 108.6000000  37.3770000   4.9860000 109.6470000  36.7290000
   4.4030000 108.4920000  38.5690000   4.4640000 107.6110000  39.0580000
   3.7200000 109.5880000  39.2710000   4.0620000 110.5330000  38.8500000
   2.2000000 109.5090000  38.9990000   2.0550000 109.1700000  37.9740000
   1.7320000 108.7690000  39.6480000   1.4790000 110.8730000  39.1150000
   0.4790000 110.7940000  38.6880000   1.9950000 111.5550000  38.4390000
   1.5270000 111.5540000  40.5080000   0.5640000 110.8590000  40.8330000
   1.2760000 111.8900000  41.7600000   0.5470000 111.4060000  42.2640000
   1.8590000 112.5760000  42.2180000   4.1200000 109.5860000  40.7670000
   3.3200000 109.2290000  41.6380000   5.3790000 109.9540000  41.0830000
   6.4070000 110.4270000  40.1600000   6.7790000 109.5900000  39.5680000
   6.0300000 111.2120000  39.5040000   7.5360000 110.9800000  41.0260000
   7.3560000 112.0340000  41.2370000   8.5100000 110.8400000  40.5580000
   7.4000000 110.1650000  42.3100000   7.8650000 109.1900000  42.1670000
   7.8420000 110.6800000  43.1630000   5.8850000 109.9900000  42.4530000
   5.6780000 109.0420000  42.9490000   5.2480000 111.1310000  43.2640000
   4.8520000 112.1660000  42.7180000   5.1860000 110.9630000  44.5910000
   5.5100000 110.0870000  44.9740000   4.6850000 111.9910000  45.5230000
   3.9330000 112.5970000  45.0190000   3.9820000 111.3310000  46.7260000
   4.6450000 110.6110000  47.2040000   3.7210000 112.1020000  47.4510000
   2.6920000 110.6350000  46.2590000   2.9460000 109.8150000  45.5870000
   2.0770000 111.3520000  45.7150000   1.8760000 110.0810000  47.4320000
   2.4910000 109.3700000  47.9850000   1.5900000 110.8990000  48.0920000
   0.6180000 109.3850000  46.8930000   0.9220000 108.6120000  46.1860000
   0.0190000 110.1150000  46.3490000  -0.1890000 108.7770000  47.9850000
   0.3530000 108.0880000  48.4870000  -1.0060000 108.3100000  47.6170000
  -0.5070000 109.4730000  48.6440000   5.8080000 112.9530000  45.9060000
   6.3770000 112.8820000  46.9920000   6.1170000 113.8620000  44.9830000
   5.6170000 113.7980000  44.1080000   7.2010000 114.8540000  45.0750000
   8.1530000 114.3280000  45.0050000   7.1160000 115.8530000  43.9070000
   6.1360000 116.3280000  43.9400000   7.8620000 116.6360000  44.0450000
   7.2980000 115.2340000  42.5100000   6.6370000 114.3740000  42.4030000
   6.9710000 115.9780000  41.7830000   8.7450000 114.8200000  42.1560000
   9.6440000 114.8040000  43.0300000   8.9940000 114.5140000  40.9630000
   7.2140000 115.6010000  46.4160000   8.2700000 115.7350000  47.0270000
   6.0490000 116.0400000  46.9090000   5.2180000 115.9150000  46.3490000
   5.9030000 116.6850000  48.2230000   4.8450000 116.8540000  48.4240000
   6.4000000 117.6540000  48.1950000   6.4870000 115.8760000  49.3900000
   7.2590000 116.4190000  50.1830000   6.1910000 114.5660000  49.4680000
   5.5800000 114.1770000  48.7650000   6.8020000 113.6530000  50.4600000
   6.6790000 114.0750000  51.4570000   6.1400000 112.2630000  50.4340000
   6.1970000 111.8430000  49.4290000   6.7100000 111.6150000  51.0990000
   4.6790000 112.2480000  50.8990000   4.0480000 112.7210000  50.1460000
   4.5900000 112.7920000  51.8390000   4.2400000 110.7900000  51.1140000
   4.3810000 110.2310000  50.1890000   4.8670000 110.3470000  51.8880000
   2.7720000 110.6940000  51.5440000   2.1450000 111.0300000  50.7180000
   2.6030000 111.3630000  52.3870000   2.4240000 109.2970000  51.9250000
   2.8880000 109.0280000  52.7810000   1.4300000 109.1900000  52.0700000
   2.7140000 108.6410000  51.2140000   8.3040000 113.4840000  50.2400000
   9.0800000 113.4000000  51.1870000   8.7190000 113.4010000  48.9730000
   8.0280000 113.5210000  48.2460000  10.1230000 113.1850000  48.6050000
  10.5040000 112.3250000  49.1560000  10.2370000 112.8830000  47.0910000
  11.2630000 112.5820000  46.8780000  10.0450000 113.7980000  46.5320000
   9.3210000 111.8020000  46.5150000   9.1690000 111.6770000  45.3130000
   8.6580000 110.9850000  47.3130000   7.9240000 110.4530000  46.8670000
   8.6020000 111.1860000  48.3020000  10.9790000 114.3950000  49.0340000
  12.0090000 114.2270000  49.6860000  10.5040000 115.6120000  48.7540000
   9.6660000 115.6740000  48.1930000  11.0960000 116.8710000  49.2080000
  12.1390000 116.8980000  48.8960000  10.3650000 118.0520000  48.5460000
   9.3090000 118.0100000  48.8120000  10.7710000 118.9780000  48.9540000
  10.4750000 118.1340000  47.0390000   9.7090000 118.9420000  46.2270000
   8.9490000 119.5380000  46.5230000  10.1500000 118.8150000  44.9640000
   9.7330000 119.3330000  44.1130000  11.1930000 117.9660000  44.9160000
  11.4060000 117.5300000  46.2320000  12.1870000 116.8590000  46.5580000
  11.0860000 117.0270000  50.7380000  12.1180000 117.3770000  51.3120000
   9.9640000 116.7470000  51.4180000   9.1280000 116.4830000  50.9160000
   9.8650000 116.9250000  52.8800000  10.1900000 117.9400000  53.1090000
   8.4160000 116.8130000  53.3660000   8.3690000 117.1480000  54.4030000
   7.7830000 117.4670000  52.7660000   7.9370000 115.4840000  53.2930000
   7.0390000 115.4780000  53.6330000  10.7850000 115.9790000  53.6670000
  11.3130000 116.3650000  54.7130000  11.0540000 114.7790000  53.1360000
  10.5120000 114.4890000  52.3350000  12.0520000 113.8430000  53.6750000
  12.0800000 113.9430000  54.7600000  11.6220000 112.4070000  53.3550000
  11.4800000 112.2950000  52.2800000  12.4260000 111.7420000  53.6720000
  10.3320000 112.0030000  54.0950000  10.4740000 112.1800000  55.1610000
   9.5020000 112.6190000  53.7490000   9.9550000 110.5320000  53.9140000
   8.8120000 110.1320000  54.0920000  10.8790000 109.6650000  53.5510000
  10.6060000 108.7020000  53.4120000  11.8340000 109.9570000  53.4060000
  13.4930000 114.1000000  53.1800000  14.4200000 113.4000000  53.5950000
  13.7070000 115.1060000  52.3230000  12.9200000 115.6790000  52.0550000
  15.0100000 115.4460000  51.7370000  15.7140000 115.6590000  52.5420000
  14.9010000 116.3520000  51.1410000  15.6220000 114.3610000  50.8390000
  16.8480000 114.2460000  50.7650000  14.7900000 113.5660000  50.1570000
  13.7980000 113.7430000  50.2220000  15.2430000 112.5540000  49.1990000
  15.9400000 111.8950000  49.7160000  14.0480000 111.7110000  48.7270000
  14.4310000 110.9320000  48.0670000  13.3850000 112.3430000  48.1360000
  13.0660000 110.8900000  50.0190000  16.0030000 113.1730000  48.0070000
  15.6720000 114.2690000  47.5400000  17.0230000 112.4640000  47.5120000
  17.2200000 111.5600000  47.9170000  17.8210000 112.8620000  46.3450000
  18.6590000 112.1740000  46.2390000  18.2220000 113.8610000  46.5150000
  17.0410000 112.8690000  45.0230000  15.9220000 112.3600000  44.9300000
  17.6540000 113.4180000  43.9710000  18.5750000 113.8100000  44.1050000
  17.0890000 113.4370000  42.6130000  16.1910000 114.0550000  42.6280000
  18.1100000 114.0880000  41.6600000  18.2600000 115.1240000  41.9650000
  19.0660000 113.5750000  41.7680000  17.7350000 114.0620000  40.1680000
  17.7670000 113.0290000  39.8230000  18.4990000 114.6090000  39.6150000
  16.3540000 114.6700000  39.8470000  15.7020000 114.2020000  38.8830000
  15.9100000 115.6180000  40.5390000  16.6950000 112.0220000  42.1430000
  17.5080000 111.0930000  42.1720000  15.4390000 111.8530000  41.7170000
  14.8180000 112.6500000  41.7200000  14.9000000 110.5830000  41.2090000
  13.9950000 110.7910000  40.6380000  15.6230000 110.1340000  40.5280000
  14.5490000 109.5420000  42.2850000  14.0310000 108.4740000  41.9500000
  14.8070000 109.8260000  43.5660000  15.2140000 110.7250000  43.7810000
  14.3730000 108.9950000  44.6930000  14.4220000 107.9480000  44.3920000
  15.3110000 109.1820000  45.8970000  14.9320000 108.5930000  46.7310000
  15.2990000 110.2310000  46.1900000  16.7620000 108.7520000  45.6230000
  16.7710000 107.7010000  45.3320000  17.1730000 109.3370000  44.8010000
  17.6730000 108.9340000  46.8390000  17.3410000 109.5770000  47.8260000
  18.8670000 108.3850000  46.8140000  19.4660000 108.5100000  47.6170000
  19.1780000 107.8600000  46.0090000  12.9210000 109.2970000  45.1000000
  12.4190000 110.4090000  44.9200000  12.2790000 108.3150000  45.7330000
  12.7630000 107.4360000  45.8470000  10.9600000 108.4280000  46.3710000
  10.6230000 109.4620000  46.3090000   9.9040000 107.5450000  45.6690000
   8.9480000 107.7090000  46.1660000   9.7310000 107.9530000  44.2030000
   8.9000000 107.4010000  43.7620000  10.6380000 107.7440000  43.6360000
   9.5160000 109.0200000  44.1450000  10.2060000 106.0400000  45.7300000
  10.2500000 105.7000000  46.7640000   9.4120000 105.4880000  45.2270000
  11.1570000 105.8250000  45.2430000  11.0670000 108.0610000  47.8500000
  11.9360000 107.2830000  48.2430000  10.1600000 108.5860000  48.6720000
   9.4640000 109.2030000  48.2770000   9.9170000 108.0490000  50.0080000
  10.8600000 107.9710000  50.5500000   8.9870000 109.0060000  50.7630000
   8.0440000 109.1230000  50.2280000   8.7750000 108.5980000  51.7510000
   9.4650000 109.9790000  50.8750000   9.3040000 106.6470000  49.8490000
   8.2380000 106.4980000  49.2460000   9.9870000 105.6120000  50.3360000
  10.8610000 105.7800000  50.8120000   9.6190000 104.2300000  50.0560000
   9.2200000 104.1810000  49.0430000  10.8710000 103.3450000  50.0930000
  11.5950000 103.7260000  49.3730000  11.3180000 103.4080000  51.0850000
  10.5400000 101.6030000  49.7300000   8.5220000 103.7540000  51.0180000
   8.8050000 103.3210000  52.1320000   7.2660000 103.8600000  50.5770000
   7.1250000 104.2660000  49.6630000   6.0580000 103.4680000  51.3100000
   6.3300000 102.8650000  52.1760000   5.3090000 104.7330000  51.7810000
   4.3260000 104.4470000  52.1560000   5.1560000 105.3780000  50.9160000
   6.0330000 105.5450000  52.8720000   7.0590000 105.7450000  52.5640000
   5.3400000 106.8900000  53.0800000   5.8640000 107.4620000  53.8450000
   5.3610000 107.4550000  52.1480000   4.3060000 106.7320000  53.3870000
   6.0380000 104.8090000  54.2140000   5.0190000 104.5670000  54.5150000
   6.6190000 103.8900000  54.1360000   6.4930000 105.4360000  54.9810000
   5.1800000 102.6120000  50.3910000   4.9450000 102.9880000  49.2420000
   4.7200000 101.4550000  50.8820000   4.9190000 101.2370000  51.8480000
   4.1040000 100.3970000  50.0640000   4.8710000  99.9740000  49.4160000
   3.5970000  99.2750000  50.9890000   2.8430000  99.6790000  51.6640000
   4.4270000  98.9320000  51.6070000   3.0050000  98.0750000  50.2660000
   1.6590000  98.0850000  49.8460000   1.0330000  98.9420000  50.0450000
   1.1190000  96.9800000  49.1650000   0.0890000  96.9950000  48.8410000
   1.9190000  95.8530000  48.9120000   1.5080000  94.9990000  48.3930000
   3.2540000  95.8300000  49.3440000   3.8590000  94.9540000  49.1600000
   3.7970000  96.9380000  50.0200000   4.8240000  96.9090000  50.3550000
   2.9880000 100.9200000  49.1480000   3.0530000 100.7510000  47.9350000
   1.9990000 101.6150000  49.7090000   2.0150000 101.7530000  50.7090000
   0.8280000 102.0930000  48.9550000   0.4840000 101.2930000  48.2990000
  -0.3110000 102.4240000  49.9210000  -1.1610000 102.7870000  49.3430000
   0.0080000 103.2130000  50.6030000  -0.7460000 101.1980000  50.7330000
  -1.0280000 100.3980000  50.0490000   0.0860000 100.8440000  51.3430000
  -1.9380000 101.5480000  51.6350000  -3.0130000 101.8960000  51.0920000
  -1.7920000 101.4730000  52.8800000   1.1270000 103.2980000  48.0480000
   0.3750000 103.5720000  47.1100000   2.2330000 104.0090000  48.2940000
   2.8380000 103.7150000  49.0480000   2.7040000 105.0740000  47.4070000
   1.8360000 105.6330000  47.0560000   3.5900000 106.0720000  48.1720000
   4.0090000 106.7770000  47.4540000   4.4210000 105.5370000  48.6310000
   2.8320000 106.8820000  49.2410000   1.5880000 107.0180000  49.1690000
   3.4890000 107.4730000  50.1260000   3.3880000 104.5300000  46.1430000
   3.3020000 105.1830000  45.1060000   3.9860000 103.3270000  46.1720000
   4.0260000 102.8470000  47.0600000   4.6650000 102.7140000  45.0030000
   4.7670000 103.4780000  44.2320000   6.1170000 102.2910000  45.3180000
   6.5650000 101.9410000  44.3890000   6.9470000 103.4860000  45.8030000
   6.6130000 103.8100000  46.7890000   7.9980000 103.2050000  45.8570000
   6.8470000 104.3150000  45.1020000   6.2440000 101.1630000  46.3470000
   5.8320000 101.4690000  47.3080000   7.2950000 100.9030000  46.4760000
   5.7280000 100.2690000  45.9970000   3.8710000 101.5760000  44.3370000
   3.8330000 101.5080000  43.1060000   3.2300000 100.6970000  45.1140000
   3.2610000 100.8360000  46.1140000   2.4300000  99.5560000  44.6310000
   2.9140000  99.1720000  43.7330000   2.4120000  98.3860000  45.6420000
   1.8710000  98.6820000  46.5410000   1.7110000  97.1660000  45.0330000
   1.7110000  96.3460000  45.7520000   0.6750000  97.4050000  44.7940000
   2.2280000  96.8420000  44.1290000   3.8230000  97.9410000  46.0440000
   3.7700000  97.0250000  46.6320000   4.2870000  98.7040000  46.6690000
   4.4330000  97.7630000  45.1580000   0.9880000 100.0040000  44.3120000
   0.3290000 100.5590000  45.1970000   0.4600000  99.7870000  43.0890000
   1.1270000  99.2670000  41.9100000   2.1860000  99.5210000  41.8920000
   0.9970000  98.1850000  41.8630000   0.4080000  99.9320000  40.7400000
   0.4900000  99.3470000  39.8240000   0.7850000 100.9440000  40.5930000
  -1.0320000  99.9840000  41.2180000  -1.5820000 100.7990000  40.7480000
  -1.5010000  99.0260000  40.9950000  -0.9050000 100.1810000  42.7320000
  -1.0380000 101.2370000  42.9630000  -1.9530000  99.3450000  43.4660000
  -1.8610000  98.1170000  43.5270000  -2.9990000  99.9930000  43.9790000
  -3.0350000 101.0010000  43.9290000  -4.0670000  99.2720000  44.6750000
  -3.5740000  98.5640000  45.3400000  -4.8550000 100.2420000  45.5660000
  -5.5140000 100.8510000  44.9470000  -4.1640000 100.9070000  46.0850000
  -5.6800000  99.4830000  46.6100000  -6.2950000 100.1980000  47.1560000
  -6.3410000  98.7990000  46.0780000  -4.7370000  98.5020000  47.8120000
  -3.9530000  99.8020000  48.7980000  -4.7190000 100.4520000  49.2210000
  -3.3850000  99.3470000  49.6090000  -3.2770000 100.3900000  48.1770000
  -4.9420000  98.4280000  43.7260000  -5.4120000  97.3630000  44.1190000
  -5.0970000  98.8330000  42.4550000  -4.6900000  99.7130000  42.1750000
  -5.7680000  98.0050000  41.4390000  -6.7370000  97.7200000  41.8480000
  -6.0640000  98.8120000  40.1540000  -6.7840000  99.5920000  40.3990000
  -6.5410000  98.1560000  39.4250000  -4.8800000  99.4830000  39.4750000
  -3.7230000  99.2040000  39.7390000  -5.1300000 100.4040000  38.5760000
  -6.0810000 100.6490000  38.3420000  -4.3480000 100.8700000  38.1380000
  -5.0300000  96.6740000  41.1770000  -5.6780000  95.6290000  41.1200000
  -3.6900000  96.6840000  41.1130000  -3.2260000  97.5800000  41.0800000
  -2.8650000  95.4670000  41.1470000  -3.1330000  94.8420000  40.2950000
  -1.3680000  95.8090000  41.0150000  -1.1440000  96.6990000  41.6030000
  -1.1450000  96.0540000  39.9760000  -0.4340000  94.7000000  41.4650000
  -0.1820000  93.5920000  40.6330000  -0.6210000  93.5460000  39.6480000
   0.6290000  92.5370000  41.0960000   0.8320000  91.6830000  40.4670000
   1.1910000  92.5830000  42.3870000   1.9490000  91.5440000  42.8280000
   2.7510000  91.8430000  43.2640000   0.9600000  93.7050000  43.2090000
   1.3960000  93.7570000  44.1960000   0.1450000  94.7560000  42.7480000
  -0.0510000  95.6020000  43.3900000  -3.1470000  94.6370000  42.4070000
  -3.4670000  93.4540000  42.2990000  -3.0880000  95.2490000  43.5960000
  -2.8050000  96.2180000  43.6250000  -3.3070000  94.5300000  44.8600000
  -2.5840000  93.7160000  44.9000000  -3.0630000  95.4420000  46.0710000
  -3.6350000  96.3630000  45.9570000  -3.4150000  94.9440000  46.9740000
  -1.5800000  95.7840000  46.2520000  -1.4790000  96.4170000  47.1340000
  -1.2550000  96.3670000  45.3910000  -0.4600000  94.3600000  46.4290000
  -1.0860000  93.5940000  47.9500000  -1.0690000  94.3220000  48.7610000
  -2.1040000  93.2350000  47.7950000  -0.4540000  92.7470000  48.2150000
  -4.6880000  93.8700000  44.9650000  -4.7830000  92.7470000  45.4590000
  -5.7510000  94.5330000  44.5050000  -5.6120000  95.4720000  44.1590000
  -7.1220000  94.0040000  44.5680000  -7.2100000  93.4020000  45.4720000
  -8.1530000  95.1400000  44.7090000  -8.0130000  95.8650000  43.9060000
  -9.5910000  94.6130000  44.6470000 -10.2870000  95.4130000  44.9020000
  -9.8280000  94.2730000  43.6390000  -9.7210000  93.7840000  45.3420000
  -7.9650000  95.8450000  46.0600000  -6.9840000  96.3190000  46.1070000
  -8.7230000  96.6200000  46.1800000  -8.0540000  95.1300000  46.8780000
  -7.4400000  93.0550000  43.4070000  -7.6900000  91.8740000  43.6460000
  -7.4440000  93.5330000  42.1580000  -7.1520000  94.4840000  41.9850000
  -7.8920000  92.7250000  41.0150000  -8.8430000  92.2610000  41.2760000
  -8.1120000  93.6050000  39.7740000  -7.1610000  94.0640000  39.5030000
  -8.3930000  92.9530000  38.9480000  -9.1760000  94.6880000  39.8640000
 -10.4350000  94.4210000  40.4430000 -10.6420000  93.4570000  40.8830000
 -11.4480000  95.3980000  40.4230000 -12.4150000  95.1940000  40.8580000
 -11.2130000  96.6460000  39.8090000 -12.2020000  97.5790000  39.7770000
 -11.9290000  98.3720000  39.3100000  -9.9510000  96.9210000  39.2360000
  -9.7680000  97.8730000  38.7610000  -8.9380000  95.9420000  39.2670000
  -7.9840000  96.1450000  38.8040000  -6.9350000  91.5780000  40.6620000
  -7.3790000  90.4520000  40.4290000  -5.6250000  91.8410000  40.6220000
  -5.3060000  92.7700000  40.8590000  -4.6450000  90.8570000  40.1550000
  -5.1280000  90.1750000  39.4560000  -3.5270000  91.5620000  39.3770000
  -3.0250000  92.2830000  40.0220000  -3.9870000  92.1180000  38.5600000
  -2.4860000  90.6280000  38.7910000  -1.3520000  90.2720000  39.5450000
  -1.2410000  90.6390000  40.5550000  -0.3530000  89.4580000  38.9820000
   0.5330000  89.2170000  39.5500000  -0.5010000  88.9690000  37.6720000
   0.2660000  88.3440000  37.2390000  -1.6460000  89.2990000  36.9260000
  -1.7600000  88.9240000  35.9190000  -2.6350000  90.1300000  37.4820000
  -3.5040000  90.3940000  36.8980000  -4.1160000  90.0040000  41.3070000
  -4.2320000  88.7790000  41.2720000  -3.5760000  90.6300000  42.3550000
  -3.5260000  91.6390000  42.3480000  -2.9640000  89.8990000  43.4550000
  -2.3390000  89.1160000  43.0230000  -2.0410000  90.8310000  44.2570000
  -2.6320000  91.5000000  44.8820000  -1.4400000  91.4350000  43.5780000
  -1.1200000  90.0280000  45.1570000  -1.5000000  89.5820000  46.2280000
   0.1030000  89.7900000  44.7380000   0.6860000  89.2010000  45.3150000
   0.4490000  90.1960000  43.8800000  -4.0420000  89.1920000  44.2960000
  -4.0540000  87.9640000  44.3250000  -4.9880000  89.9200000  44.9050000
  -4.9450000  90.9290000  44.8680000  -6.0270000  89.2920000  45.7240000
  -5.5060000  88.6060000  46.3920000  -6.7490000  90.3040000  46.6240000
  -6.0180000  90.7880000  47.2710000  -7.1950000  91.0800000  46.0010000
  -7.8360000  89.6880000  47.4940000  -7.6110000  88.4800000  48.1870000
  -6.6530000  87.9850000  48.1320000  -8.6220000  87.9150000  48.9820000
  -8.4440000  86.9830000  49.4970000  -9.8600000  88.5660000  49.1120000
 -10.6350000  88.1370000  49.7290000 -10.0830000  89.7820000  48.4440000
 -11.0290000  90.2910000  48.5560000  -9.0760000  90.3390000  47.6350000
  -9.2570000  91.2740000  47.1250000  -7.0060000  88.4310000  44.9120000
  -6.9690000  87.2100000  45.0430000  -7.8900000  89.0170000  44.0940000
  -7.8860000  90.0230000  44.0030000  -8.9500000  88.2520000  43.4220000
  -9.5620000  87.7750000  44.1880000  -9.8770000  89.1680000  42.6060000
  -9.2790000  89.6880000  41.8580000 -10.5770000  88.5300000  42.0650000
 -10.7110000  90.2100000  43.3390000 -10.8990000  90.1910000  44.7370000
 -10.4280000  89.4380000  45.3520000 -11.7240000  91.1510000  45.3520000
 -11.8720000  91.1310000  46.4220000 -12.3730000  92.1260000  44.5770000
 -13.0220000  92.8480000  45.0500000 -12.1930000  92.1470000  43.1840000
 -12.7020000  92.8860000  42.5840000 -11.3670000  91.1900000  42.5700000
 -11.2520000  91.1950000  41.4960000  -8.3960000  87.1130000  42.5470000
  -8.7070000  85.9440000  42.7920000  -7.5620000  87.4300000  41.5490000
  -7.3540000  88.4020000  41.3720000  -7.0710000  86.4300000  40.6000000
  -7.9220000  85.8190000  40.3000000  -6.5680000  87.1300000  39.3320000
  -6.3030000  86.3820000  38.5850000  -7.3520000  87.7690000  38.9250000
  -5.6870000  87.7360000  39.5470000  -6.0280000  85.4560000  41.1900000
  -6.1190000  84.2550000  40.9310000  -5.0550000  85.9350000  41.9810000
  -4.9930000  86.9330000  42.1190000  -3.9100000  85.1070000  42.4030000
  -3.8680000  84.2160000  41.7760000  -2.5970000  85.8650000  42.1440000
  -2.5400000  86.7500000  42.7760000  -1.7630000  85.2110000  42.3980000
  -2.4370000  86.3430000  40.3980000  -3.2850000  87.3740000  40.4590000
  -3.9680000  84.5800000  43.8530000  -3.1700000  83.7040000  44.1880000
  -4.9310000  85.0010000  44.6860000  -5.5130000  85.7700000  44.3840000
  -5.0970000  84.5080000  46.0720000  -4.3850000  83.7040000  46.2600000
  -4.8150000  85.6170000  47.1160000  -5.5070000  86.4400000  46.9390000
  -5.0450000  85.1270000  48.5510000  -4.7410000  85.8970000  49.2600000
  -6.1030000  84.9220000  48.7170000  -4.4660000  84.2230000  48.7410000
  -3.3950000  86.1920000  47.0430000  -3.1230000  86.4400000  46.0170000
  -2.6630000  85.4790000  47.4240000  -3.3390000  87.0990000  47.6440000
  -6.4830000  83.8950000  46.2750000  -6.5900000  82.7030000  46.5600000
  -7.5480000  84.6840000  46.1170000  -7.3890000  85.6420000  45.8380000
  -8.9300000  84.2710000  46.3670000  -8.9820000  83.9250000  47.3990000
  -9.8430000  85.5010000  46.2280000  -9.7610000  85.8680000  45.2050000
  -9.4820000  86.2840000  46.8950000 -11.3330000  85.2490000  46.5200000
 -11.7190000  84.5080000  45.8200000 -11.5750000  84.7580000  47.9480000
 -12.6470000  84.6760000  48.1310000 -11.1320000  83.7720000  48.0870000
 -11.1420000  85.4580000  48.6620000 -12.1090000  86.5490000  46.3180000
 -11.9750000  86.9060000  45.2970000 -13.1710000  86.3750000  46.4890000
 -11.7540000  87.3110000  47.0130000  -9.3710000  83.0980000  45.4800000
  -9.8500000  82.0970000  46.0060000  -9.1810000  83.1820000  44.1560000
  -8.8260000  84.0470000  43.7750000  -9.4790000  82.0660000  43.2330000
 -10.5340000  81.8290000  43.3650000  -9.3280000  82.4830000  41.7540000
  -8.4080000  83.0510000  41.6250000  -9.3090000  81.2900000  40.7890000
 -10.1960000  80.6730000  40.9340000  -9.2890000  81.6490000  39.7600000
  -8.4160000  80.6850000  40.9490000 -10.5000000  83.3840000  41.3470000
 -10.3530000  83.7430000  40.3280000 -10.5620000  84.2470000  42.0100000
 -11.4380000  82.8320000  41.3980000  -8.7480000  80.7650000  43.6240000
  -9.4320000  79.7660000  43.8390000  -7.4110000  80.7350000  43.8160000
  -6.4300000  81.6800000  43.2940000  -6.6690000  81.9920000  42.2780000
  -6.3550000  82.5470000  43.9500000  -5.1050000  80.9170000  43.2730000
  -5.0350000  80.3290000  42.3580000  -4.2430000  81.5780000  43.3650000
  -5.2420000  79.9860000  44.4720000  -5.0650000  80.5460000  45.3900000
  -4.5720000  79.1300000  44.4010000  -6.7110000  79.5720000  44.3740000
  -6.7830000  78.7590000  43.6520000  -7.2590000  79.0550000  45.7130000
  -7.4030000  77.8450000  45.8690000  -7.5910000  79.9220000  46.6760000
  -7.4250000  80.9070000  46.5230000  -8.2210000  79.5010000  47.9400000
  -7.6060000  78.7190000  48.3850000  -8.2860000  80.6840000  48.9280000
  -8.7320000  81.5370000  48.4170000  -8.9460000  80.4160000  49.7530000
  -6.9250000  81.1030000  49.5190000  -6.2020000  81.2610000  48.7180000
  -7.0850000  82.4100000  50.2960000  -7.7800000  82.2730000  51.1240000
  -7.4720000  83.1830000  49.6320000  -6.1190000  82.7320000  50.6830000
  -6.3640000  80.0540000  50.4840000  -5.4350000  80.4170000  50.9230000
  -7.0820000  79.8500000  51.2780000  -6.1470000  79.1240000  49.9580000
  -9.6080000  78.8590000  47.7370000  -9.9020000  77.8370000  48.3550000
 -10.4410000  79.4030000  46.8440000 -10.1560000  80.2580000  46.3880000
 -11.7310000  78.8060000  46.4690000 -12.2930000  78.6030000  47.3800000
 -12.5350000  79.8040000  45.6130000 -11.9160000  80.1120000  44.7700000
 -13.4100000  79.2960000  45.2070000 -13.0060000  81.0580000  46.3770000
 -12.1780000  81.4920000  46.9370000 -13.5140000  82.1050000  45.3860000
 -13.8410000  82.9940000  45.9250000 -14.3500000  81.7040000  44.8120000
 -12.7100000  82.3850000  44.7060000 -14.1360000  80.7410000  47.3580000
 -14.9770000  80.2890000  46.8320000 -14.4680000  81.6590000  47.8430000
 -13.7830000  80.0570000  48.1310000 -11.5640000  77.4510000  45.7570000
 -12.3000000  76.5070000  46.0490000 -10.5660000  77.3220000  44.8730000
 -10.0340000  78.1490000  44.6400000 -10.1780000  76.0450000  44.2610000
 -11.0580000  75.6140000  43.7840000  -9.1010000  76.2750000  43.1810000
  -8.2840000  76.8460000  43.6220000  -8.6950000  75.3100000  42.8760000
  -9.6090000  77.0100000  41.9250000 -10.1800000  77.8930000  42.2110000
  -8.4260000  77.4600000  41.0690000  -7.8340000  76.5980000  40.7620000
  -7.7970000  78.1440000  41.6390000  -8.7890000  77.9820000  40.1830000
 -10.5020000  76.1160000  41.0620000  -9.9630000  75.2160000  40.7690000
 -11.4000000  75.8360000  41.6140000 -10.8070000  76.6580000  40.1670000
  -9.7220000  75.0210000  45.3140000 -10.2150000  73.8940000  45.3150000
  -8.8490000  75.4130000  46.2540000  -8.4570000  76.3410000  46.1800000
  -8.4480000  74.5720000  47.3940000  -7.9670000  73.6740000  47.0050000
  -7.4410000  75.3000000  48.3020000  -7.7600000  76.3270000  48.4790000
  -7.4000000  74.7870000  49.2630000  -6.0270000  75.2950000  47.7200000
  -5.7450000  74.2570000  47.5400000  -6.0230000  75.8230000  46.7660000
  -4.7830000  76.0300000  48.8160000  -4.5230000  77.6340000  48.0130000
  -3.8430000  78.2360000  48.6160000  -5.4740000  78.1560000  47.9090000
  -4.0860000  77.4860000  47.0250000  -9.6540000  74.0960000  48.2140000
  -9.7710000  72.9010000  48.4790000 -10.5750000  74.9980000  48.5720000
 -10.4050000  75.9700000  48.3580000 -11.8210000  74.6500000  49.2650000
 -11.5560000  74.2010000  50.2220000 -12.6150000  75.9410000  49.5470000
 -12.0240000  76.5730000  50.2090000 -12.7500000  76.4790000  48.6090000
 -14.0080000  75.7270000  50.1700000 -14.6200000  75.1280000  49.4960000
 -13.9420000  75.0320000  51.5300000 -14.9450000  74.9530000  51.9500000
 -13.3110000  75.6020000  52.2120000 -13.5400000  74.0250000  51.4210000
 -14.6940000  77.0790000  50.3540000 -14.1170000  77.7040000  51.0350000
 -15.6940000  76.9320000  50.7620000 -14.7810000  77.5820000  49.3910000
 -12.6350000  73.5990000  48.4880000 -13.0320000  72.5880000  49.0660000
 -12.8290000  73.7930000  47.1790000 -12.4940000  74.6540000  46.7700000
 -13.4700000  72.8110000  46.2950000 -13.4500000  73.1850000  45.2720000
 -14.5120000  72.6860000  46.5920000 -12.7890000  71.4350000  46.3160000
 -13.4590000  70.4120000  46.4660000 -11.4560000  71.4020000  46.2200000
 -10.9750000  72.2790000  46.0800000 -10.6460000  70.1750000  46.3230000
 -11.0130000  69.4740000  45.5720000  -9.1650000  70.4530000  45.9880000
  -8.7950000  71.2720000  46.6040000  -8.2730000  69.2300000  46.2170000
  -8.6660000  68.3870000  45.6490000  -8.2350000  68.9730000  47.2750000
  -7.2590000  69.4440000  45.8790000  -9.0010000  70.8250000  44.5070000
  -9.2940000  69.9880000  43.8740000  -7.9610000  71.0800000  44.3020000
  -9.6210000  71.6850000  44.2540000 -10.8310000  69.4700000  47.6760000
 -11.1050000  68.2720000  47.6970000 -10.7330000  70.1800000  48.8060000
 -10.4890000  71.1590000  48.7470000 -10.9790000  69.5910000  50.1320000
 -10.3560000  68.7000000  50.2150000 -10.5340000  70.5410000  51.2530000
 -10.9480000  70.1860000  52.1960000 -10.9440000  71.5350000  51.0700000
  -9.0250000  70.6170000  51.4180000  -8.3110000  69.4820000  51.8530000
  -8.8370000  68.5690000  52.0910000  -6.9090000  69.5320000  51.9870000
  -6.3600000  68.6650000  52.3230000  -6.2140000  70.7210000  51.6870000
  -4.8600000  70.7620000  51.8030000  -4.5050000  71.6290000  51.5940000
  -6.9300000  71.8640000  51.2660000  -6.4070000  72.7780000  51.0280000
  -8.3320000  71.8110000  51.1420000  -8.8770000  72.6900000  50.8290000
 -12.4210000  69.0930000  50.3250000 -12.6160000  67.9950000  50.8470000
 -13.4340000  69.8240000  49.8450000 -13.2330000  70.7300000  49.4470000
 -14.8230000  69.3400000  49.8300000 -15.1200000  69.1170000  50.8540000
 -15.7570000  70.4310000  49.2720000 -16.7310000  69.9900000  49.0570000
 -15.3450000  70.7900000  48.3280000 -15.9590000  71.6260000  50.2240000
 -14.9980000  71.9560000  50.6200000 -16.5950000  72.7930000  49.4680000
 -16.7220000  73.6420000  50.1400000 -15.9450000  73.0940000  48.6460000
 -17.5660000  72.4980000  49.0710000 -16.8700000  71.2710000  51.4010000
 -16.4130000  70.4900000  52.0090000 -17.0180000  72.1500000  52.0280000
 -17.8370000  70.9250000  51.0360000 -14.9510000  68.0200000  49.0500000
 -15.5200000  67.0560000  49.5660000 -14.3540000  67.9360000  47.8510000
 -13.9210000  68.7700000  47.4800000 -14.2830000  66.6920000  47.0640000
 -15.2970000  66.3260000  46.9010000 -13.6470000  66.9560000  45.6920000
 -12.7180000  67.5150000  45.8110000 -13.4170000  65.9890000  45.2460000
 -14.5810000  67.6950000  44.7250000 -15.4530000  67.0710000  44.5320000
 -14.9120000  68.6380000  45.1600000 -13.8530000  67.9700000  43.4040000
 -13.0820000  68.7220000  43.5740000 -13.3630000  67.0530000  43.0760000
 -14.7930000  68.4560000  42.3740000 -15.3590000  69.2540000  42.6270000
 -14.9990000  67.9590000  41.1660000 -14.3180000  66.9540000  40.6890000
 -14.5040000  66.6010000  39.7610000 -13.5710000  66.5510000  41.2370000
 -15.9150000  68.4730000  40.3970000 -16.0830000  68.0960000  39.4760000
 -16.4740000  69.2500000  40.7220000 -13.5500000  65.5600000  47.7920000
 -14.0350000  64.4330000  47.7630000 -12.4280000  65.8400000  48.4650000
 -12.0690000  66.7820000  48.3950000 -11.7110000  64.8710000  49.3190000
 -11.3770000  64.0470000  48.6880000 -10.4530000  65.5000000  49.9730000
 -10.7010000  66.4950000  50.3430000  -9.9670000  64.6640000  51.1720000
  -9.9970000  63.6050000  50.9170000  -8.9470000  64.9290000  51.4490000
 -10.6020000  64.8410000  52.0400000  -9.3150000  65.6330000  48.9430000
  -9.7260000  65.9820000  47.9950000  -8.8720000  64.6500000  48.7830000
  -8.2140000  66.6210000  49.3560000  -8.6320000  67.6180000  49.4890000
  -7.7220000  66.3060000  50.2770000  -7.4630000  66.6690000  48.5670000
 -12.6440000  64.2500000  50.3670000 -12.7910000  63.0280000  50.4070000
 -13.2760000  65.0680000  51.2150000 -13.1130000  66.0620000  51.1510000
 -14.1080000  64.5540000  52.3070000 -13.5310000  63.7950000  52.8350000
 -14.4120000  65.6740000  53.3140000 -14.9860000  66.4520000  52.8100000
 -15.0360000  65.2650000  54.1090000 -13.1740000  66.2870000  53.9550000
 -12.2470000  65.4730000  54.6400000 -12.4230000  64.4120000  54.7360000
 -11.0860000  66.0350000  55.2020000 -10.3780000  65.4080000  55.7250000
 -10.8470000  67.4150000  55.0870000  -9.9540000  67.8500000  55.5110000
 -11.7780000  68.2350000  54.4280000 -11.6010000  69.2980000  54.3520000
 -12.9400000  67.6730000  53.8670000 -13.6450000  68.3100000  53.3530000
 -15.3700000  63.8360000  51.8020000 -15.7200000  62.7810000  52.3320000
 -16.0040000  64.3330000  50.7320000 -15.6900000  65.2140000  50.3510000
 -17.1030000  63.6310000  50.0540000 -17.8780000  63.4190000  50.7910000
 -17.7030000  64.5290000  48.9550000 -16.8910000  64.8910000  48.3240000
 -18.3640000  63.9310000  48.3290000 -18.5020000  65.7320000  49.4960000
 -17.9270000  66.2490000  50.2650000 -19.8410000  65.3040000  50.0990000
 -20.3910000  66.1840000  50.4320000 -19.6790000  64.6580000  50.9620000
 -20.4350000  64.7720000  49.3560000 -18.7880000  66.7180000  48.3640000
 -19.3390000  67.5740000  48.7520000 -17.8490000  67.0720000  47.9400000
 -19.3760000  66.2330000  47.5840000 -16.6680000  62.2660000  49.4970000
 -17.3480000  61.2690000  49.7330000 -15.5220000  62.1890000  48.8110000
 -15.0100000  63.0390000  48.6250000 -14.9650000  60.9330000  48.3050000
 -15.7110000  60.4620000  47.6650000 -13.7390000  61.2370000  47.4450000
 -12.9690000  61.7340000  48.0350000 -14.0310000  61.8800000  46.6150000
 -13.3410000  60.3010000  47.0540000 -14.6300000  59.9340000  49.4240000
 -14.9840000  58.7610000  49.3240000 -13.9990000  60.3890000  50.5090000
 -13.6880000  61.3500000  50.5200000 -13.7190000  59.5530000  51.6750000
 -13.1110000  58.7090000  51.3490000 -12.8950000  60.3620000  52.6780000
 -11.9760000  60.7130000  52.2080000 -12.6380000  59.7180000  53.5180000
 -13.4650000  61.2180000  53.0400000 -15.0010000  58.9750000  52.3030000
 -15.0780000  57.7710000  52.5430000 -16.0390000  59.7990000  52.5140000
 -15.9110000  60.7820000  52.3180000 -17.3410000  59.3470000  53.0510000
 -17.1570000  58.7550000  53.9470000 -18.1870000  60.5660000  53.4660000
 -18.2610000  61.2620000  52.6310000 -19.1910000  60.2320000  53.7300000
 -17.5660000  61.2730000  54.6850000 -17.5570000  60.5880000  55.5330000
 -16.5330000  61.5410000  54.4650000 -18.3110000  62.5580000  55.0690000
 -18.4320000  63.1740000  54.1790000 -17.7010000  63.1250000  55.7720000
 -19.6370000  62.2890000  55.6650000 -20.4350000  62.4120000  55.0570000
 -19.9030000  61.9800000  56.9230000 -18.9660000  61.7940000  57.8090000
 -19.1960000  61.5580000  58.7640000 -17.9990000  61.8980000  57.5370000
 -21.1350000  61.8450000  57.3210000 -21.8980000  62.0370000  56.6870000
 -21.3390000  61.6380000  58.2880000 -18.0860000  58.4080000  52.0900000
 -18.6310000  57.3970000  52.5320000 -18.0270000  58.6740000  50.7780000
 -17.6140000  59.5550000  50.5090000 -18.5170000  57.7810000  49.7040000
 -19.5770000  57.5880000  49.8670000 -18.3600000  58.4940000  48.3450000
 -18.9290000  59.4230000  48.3760000 -17.3100000  58.7440000  48.1920000
 -18.8400000  57.6620000  47.1430000 -18.3050000  56.7130000  47.1190000
 -19.9060000  57.4570000  47.2410000 -18.5710000  58.3740000  45.8100000
 -18.7540000  57.6780000  44.9910000 -17.5170000  58.6490000  45.7640000
 -19.3970000  59.5880000  45.6420000 -18.9920000  60.4570000  45.9580000
 -20.5930000  59.6710000  45.0840000 -21.2200000  58.6280000  44.6200000
 -22.1300000  58.7200000  44.1900000 -20.7860000  57.7180000  44.6890000
 -21.1920000  60.8220000  44.9800000 -22.1040000  60.8870000  44.5510000
 -20.7460000  61.6610000  45.3240000 -17.8170000  56.4170000  49.7190000
 -18.4760000  55.3920000  49.5860000 -16.4950000  56.3930000  49.8930000
 -16.0050000  57.2760000  49.9210000 -15.7160000  55.1560000  50.0340000
 -15.9750000  54.4980000  49.2050000 -14.2140000  55.4680000  49.9190000
 -13.6380000  54.5960000  50.2300000 -13.9770000  56.2970000  50.5850000
 -13.8070000  55.8230000  48.4740000 -14.5240000  56.5250000  48.0480000
 -13.8390000  54.9170000  47.8680000 -12.4140000  56.4500000  48.3490000
 -11.7080000  56.7190000  49.3100000 -11.9500000  56.7040000  47.1430000
 -12.4910000  56.4780000  46.3210000 -11.0190000  57.0890000  47.0800000
 -16.0580000  54.4000000  51.3350000 -16.2390000  53.1820000  51.3120000
 -16.1860000  55.1230000  52.4560000 -15.9560000  56.1050000  52.4020000
 -16.5190000  54.5870000  53.7820000 -15.7720000  53.8320000  54.0270000
 -16.4080000  55.7370000  54.8040000 -17.1930000  56.4610000  54.5820000
 -15.4490000  56.2390000  54.6750000 -16.5380000  55.3240000  56.2800000
 -17.4460000  54.7370000  56.4250000 -15.3310000  54.5120000  56.7510000
 -15.4350000  54.2940000  57.8140000 -15.2760000  53.5690000  56.2070000
 -14.4120000  55.0760000  56.5910000 -16.6310000  56.5760000  57.1500000
 -16.7410000  56.2910000  58.1960000 -17.5020000  57.1640000  56.8580000
 -15.7330000  57.1830000  57.0330000 -17.8960000  53.8940000  53.8390000
 -18.0070000  52.8020000  54.3980000 -18.9310000  54.4910000  53.2270000
 -18.7720000  55.4040000  52.8260000 -20.2560000  53.8700000  53.0250000
 -20.5250000  53.2690000  53.8930000 -21.3270000  54.9600000  52.8390000
 -20.9880000  55.6930000  52.1060000 -22.2360000  54.4920000  52.4610000
 -21.6640000  55.6650000  54.1610000 -22.0500000  54.9250000  54.8630000
 -20.7630000  56.1150000  54.5770000 -22.7250000  56.7550000  53.9400000
 -22.2850000  57.5870000  53.3900000 -23.5330000  56.3400000  53.3360000
 -23.3450000  57.2650000  55.2500000 -23.7970000  56.4210000  55.7730000
 -24.1480000  57.9580000  54.9970000 -22.3600000  57.9470000  56.1330000
 -22.8140000  58.2950000  56.9650000 -21.9320000  58.7330000  55.6660000
 -21.6300000  57.3170000  56.4330000 -20.1740000  52.9320000  51.8170000
 -20.2830000  53.3560000  50.6700000 -19.8580000  51.6680000  52.0700000
 -19.8440000  51.3690000  53.0340000 -19.1620000  50.8330000  51.0950000
 -18.2520000  51.3620000  50.8110000 -18.7270000  49.5180000  51.7580000
 -18.1460000  48.9650000  51.0200000 -19.6100000  48.9280000  52.0030000
 -17.8490000  49.6800000  53.0170000 -17.1300000  48.8610000  53.0300000
 -17.2710000  50.6030000  52.9600000 -18.6300000  49.6410000  54.3380000
 -19.7930000  50.0150000  54.4340000 -18.0280000  49.1750000  55.4110000
 -18.5490000  49.1480000  56.2760000 -17.0670000  48.8670000  55.3700000
 -19.9620000  50.5520000  49.8050000 -21.0800000  50.0370000  49.8470000
 -19.3210000  50.7850000  48.6550000 -18.4960000  51.3670000  48.7050000
 -19.4660000  49.9280000  47.4730000 -20.5220000  49.6870000  47.3520000
 -19.0290000  50.6340000  46.1690000 -18.6870000  49.8890000  45.4500000
 -19.9280000  51.0790000  45.7430000 -17.9880000  51.7690000  46.2470000
 -18.3070000  52.5230000  46.9670000 -18.0010000  52.2630000  45.2750000
 -16.2530000  51.3210000  46.5570000 -16.0740000  51.6250000  48.3390000
 -16.5310000  52.5810000  48.5940000 -16.5440000  50.8330000  48.9220000
 -15.0140000  51.6560000  48.5930000 -18.7680000  48.5880000  47.7560000
 -19.4360000  47.6030000  48.0650000 -17.4330000  48.5600000  47.7830000
 -16.9230000  49.3500000  47.4130000 -16.6650000  47.4200000  48.2980000
 -17.2340000  47.0040000  49.1300000 -15.3300000  47.8810000  48.9100000
 -15.5440000  48.7100000  49.5840000 -14.9250000  47.0630000  49.5060000
 -14.2540000  48.3210000  47.9070000 -14.7180000  48.9470000  47.1450000
 -13.8490000  47.4380000  47.4120000 -13.1000000  49.1020000  48.5740000
 -12.7960000  48.8790000  49.7720000 -12.4660000  49.9390000  47.8860000
 -16.5120000  46.3030000  47.2490000 -16.2480000  46.5530000  46.0710000
 -16.7020000  45.0620000  47.7020000 -16.8150000  44.9610000  48.7010000
 -16.6600000  43.8060000  46.9360000 -15.6580000  43.6830000  46.5230000
 -17.6640000  43.7940000  45.7670000 -17.4110000  44.5890000  45.0660000
 -18.6730000  43.9720000  46.1360000 -17.6240000  42.5610000  45.0640000
 -18.2100000  41.9350000  45.4950000 -16.9150000  42.6670000  47.9240000
 -16.0270000  41.8570000  48.1760000 -18.0810000  42.6870000  48.5860000
 -18.7840000  43.3520000  48.2960000 -18.3610000  41.8920000  49.7890000
 -17.8780000  40.9210000  49.6770000 -19.8760000  41.6210000  49.8700000
 -20.4250000  42.5540000  49.7410000 -20.1440000  40.9700000  49.0380000
 -20.3400000  40.9600000  51.1780000 -20.0850000  41.5940000  52.0270000
 -19.8330000  40.0030000  51.3000000 -21.8500000  40.7220000  51.1710000
 -22.3760000  39.8870000  50.4440000 -22.6100000  41.4450000  51.9680000
 -22.1990000  42.1410000  52.5730000 -23.6090000  41.2970000  51.9460000
 -17.7590000  42.5310000  51.0610000 -17.2220000  41.7890000  51.8810000
 -17.7570000  43.8730000  51.2350000 -18.7780000  44.7930000  50.7600000
 -19.7630000  44.3280000  50.7340000 -18.5180000  45.1800000  49.7750000
 -18.7930000  45.9270000  51.7760000 -19.1250000  46.8520000  51.3060000
 -19.4410000  45.6620000  52.6110000 -17.3400000  45.9920000  52.2500000
 -17.2610000  46.4410000  53.2400000 -16.7420000  46.5470000  51.5270000
 -16.9440000  44.5130000  52.2710000 -17.2330000  44.0980000  53.2370000
 -15.4510000  44.2440000  52.0210000 -14.8890000  44.6840000  51.0170000
 -14.8300000  43.4840000  52.9300000 -15.3700000  43.2240000  53.7430000
 -13.6220000  42.6780000  52.6660000 -13.2240000  42.9610000  51.6910000
 -14.0150000  41.1840000  52.5640000 -14.6240000  41.0670000  51.6680000
 -13.1040000  40.6140000  52.3790000 -14.7770000  40.5200000  53.7400000
 -15.8150000  40.8530000  53.7280000 -14.7580000  39.0020000  53.5370000
 -15.3640000  38.5160000  54.3010000 -15.1680000  38.7610000  52.5560000
 -13.7370000  38.6250000  53.6000000 -14.2450000  40.7820000  55.1510000
 -14.3080000  41.8440000  55.3900000 -14.8580000  40.2400000  55.8710000
 -13.2140000  40.4400000  55.2400000 -12.4630000  42.9210000  53.6610000
 -11.6460000  42.0250000  53.9000000 -12.3220000  44.1520000  54.1730000
 -12.0880000  45.2610000  53.2710000 -11.2030000  45.0790000  52.6610000
 -12.9540000  45.4190000  52.6280000 -11.8990000  46.4830000  54.1430000
 -12.3780000  47.3430000  53.6740000 -10.8340000  46.6520000  54.3000000
 -12.5640000  46.1520000  55.4760000 -13.4920000  46.7150000  55.5780000
 -11.8890000  46.4350000  56.2840000 -12.8520000  44.6220000  55.4870000
 -13.9080000  44.4810000  55.2540000 -12.4290000  43.9560000  56.9150000
 -11.4120000  43.5440000  56.3710000 -13.6000000  44.4760000  57.3240000
 -14.2790000  44.8640000  56.6850000 -13.8150000  44.7190000  58.7500000
 -13.3980000  43.8980000  59.3340000 -14.8830000  44.7710000  58.9650000
 -13.1540000  46.0330000  59.1890000 -13.8320000  47.0440000  59.3720000
 -11.8230000  46.0150000  59.3510000 -11.3520000  45.1330000  59.2070000
 -11.0580000  47.0890000  60.0140000 -11.7440000  47.8510000  60.3820000
 -10.3130000  46.5020000  61.2290000  -9.7100000  47.2860000  61.6870000
  -9.6290000  45.7260000  60.8840000 -11.2260000  45.8930000  62.3050000
 -10.5960000  45.5060000  63.1050000 -11.7590000  45.0440000  61.8770000
 -12.2330000  46.8980000  62.9030000 -11.8770000  48.0820000  63.1240000
 -13.3870000  46.4970000  63.1920000 -10.0450000  47.8290000  59.1230000
  -9.9640000  49.0540000  59.1880000  -9.2230000  47.1200000  58.3320000
  -9.3550000  46.1200000  58.2830000  -7.9780000  47.6930000  57.7720000
  -7.4330000  48.1540000  58.5950000  -7.0910000  46.5860000  57.1690000
  -6.2680000  47.0470000  56.6220000  -7.6800000  46.0070000  56.4560000
  -6.4950000  45.6290000  58.2180000  -7.2930000  45.2100000  58.8300000
  -6.0060000  44.8080000  57.6920000  -5.4620000  46.3140000  59.1270000
  -5.9430000  47.1300000  59.6660000  -4.6670000  46.7460000  58.5190000
  -4.8990000  45.3810000  60.1230000  -5.3440000  45.3710000  61.0290000
  -3.8500000  44.5870000  59.9850000  -3.1900000  44.4870000  58.8660000
  -3.4860000  45.0300000  58.0670000  -2.3910000  43.8730000  58.7890000
  -3.4370000  43.8690000  60.9900000  -2.6360000  43.2630000  60.8930000
  -3.9100000  43.9250000  61.8810000  -8.1950000  48.8520000  56.7960000
  -7.6160000  49.9180000  56.9880000  -9.0560000  48.7020000  55.7850000
  -9.4810000  47.7980000  55.6350000  -9.3420000  49.8170000  54.8680000
  -8.3890000  50.2230000  54.5310000 -10.0800000  49.3300000  53.6220000
  -9.5770000  48.4620000  53.1950000 -10.0930000  50.1270000  52.8780000
 -11.1120000  49.0920000  53.8790000 -10.1060000  50.9640000  55.5570000
  -9.9010000  52.1280000  55.2160000 -10.9430000  50.6510000  56.5590000
 -11.0600000  49.6730000  56.7810000 -11.6420000  51.6400000  57.3990000
 -12.2180000  52.2970000  56.7490000 -12.6220000  50.8950000  58.3260000
 -13.2020000  50.1940000  57.7270000 -12.0650000  50.3250000  59.0690000
 -13.6010000  51.8150000  59.0640000 -13.0530000  52.5350000  59.6710000
 -14.2120000  52.3440000  58.3330000 -14.5040000  50.9680000  59.9680000
 -13.8830000  50.4570000  60.7040000 -15.0080000  50.2190000  59.3570000
 -15.5140000  51.7880000  60.6620000 -15.5140000  52.7810000  60.4740000
 -16.4340000  51.3430000  61.5010000 -17.2860000  52.1630000  62.0460000
 -17.2540000  53.1500000  61.8330000 -17.9880000  51.8180000  62.6860000
 -16.5300000  50.0820000  61.8140000 -17.2390000  49.7590000  62.4580000
 -15.8770000  49.4250000  61.4120000 -10.6520000  52.5300000  58.1630000
 -10.7710000  53.7530000  58.1120000  -9.6390000  51.9440000  58.8060000
  -9.5950000  50.9350000  58.8250000  -8.5800000  52.7100000  59.4790000
  -9.0680000  53.4790000  60.0780000  -7.7970000  51.8460000  60.4740000
  -8.5000000  51.3530000  61.1460000  -7.1510000  52.4930000  61.0670000
  -7.0030000  50.8720000  59.8270000  -6.5470000  50.3640000  60.5010000
  -7.6590000  53.4480000  58.4950000  -7.3210000  54.6040000  58.7500000
  -7.3270000  52.8680000  57.3330000  -7.5280000  51.8850000  57.2160000
  -6.6440000  53.5830000  56.2330000  -5.6740000  53.9160000  56.6000000
  -6.3950000  52.6740000  55.0160000  -7.3460000  52.2620000  54.6770000
  -5.7380000  53.3990000  53.8400000  -5.4850000  52.6810000  53.0600000
  -6.4290000  54.1270000  53.4160000  -4.8340000  53.9120000  54.1670000
  -5.5370000  51.6070000  55.3580000  -4.6750000  51.9720000  55.5710000
  -7.4100000  54.8450000  55.8130000  -6.8270000  55.9290000  55.7960000
  -8.7160000  54.7300000  55.5330000  -9.1300000  53.8090000  55.5440000
  -9.6000000  55.8700000  55.2520000  -9.2610000  56.3520000  54.3360000
 -11.0550000  55.3810000  55.0750000 -11.2080000  54.4810000  55.6690000
 -11.7440000  56.1330000  55.4590000 -11.4300000  55.0910000  53.6150000
 -10.6360000  54.5210000  53.1320000 -12.7230000  54.2790000  53.5640000
 -13.5290000  54.8340000  54.0430000 -12.9900000  54.0730000  52.5280000
 -12.5800000  53.3300000  54.0820000 -11.6630000  56.3980000  52.8540000
 -10.7530000  56.9960000  52.8340000 -12.4620000  56.9710000  53.3240000
 -11.9450000  56.1690000  51.8260000  -9.5380000  56.9320000  56.3550000
  -9.3180000  58.1040000  56.0610000  -9.7010000  56.5350000  57.6210000
  -9.9120000  55.5620000  57.7930000  -9.6250000  57.4490000  58.7680000
 -10.3990000  58.2080000  58.6480000  -9.9160000  56.6880000  60.0710000
  -9.6630000  57.3180000  60.9230000  -9.2870000  55.7980000  60.1050000
 -11.4010000  56.2940000  60.1850000 -11.7530000  55.8730000  59.2440000
 -11.9850000  57.1950000  60.3760000 -11.6920000  55.2730000  61.2880000
 -10.8190000  54.6290000  61.8580000 -12.9480000  55.0820000  61.6360000
 -13.1430000  54.4300000  62.3830000 -13.6850000  55.6180000  61.2010000
  -8.2850000  58.2040000  58.8380000  -8.2860000  59.4220000  59.0220000
  -7.1480000  57.5200000  58.6400000  -7.2140000  56.5200000  58.5160000
  -5.8140000  58.1510000  58.5760000  -5.6660000  58.7420000  59.4800000
  -4.7150000  57.0730000  58.5040000  -3.7600000  57.5500000  58.2840000
  -4.9370000  56.3940000  57.6800000  -4.5530000  56.2420000  59.7900000
  -3.9050000  55.3960000  59.5580000  -5.5210000  55.8520000  60.1030000
  -3.9370000  57.0370000  60.9550000  -4.5800000  57.8850000  61.1880000
  -2.9590000  57.4210000  60.6640000  -3.8020000  56.1920000  62.2320000
  -4.7720000  55.7550000  62.4690000  -3.5360000  56.8600000  63.0520000
  -2.7700000  55.1240000  62.1130000  -2.6810000  54.6150000  62.9820000
  -3.0050000  54.4520000  61.3960000  -1.8630000  55.5110000  61.8990000
  -5.6900000  59.1430000  57.4130000  -5.1930000  60.2500000  57.6070000
  -6.1800000  58.7870000  56.2270000  -6.5510000  57.8520000  56.1320000
  -6.2170000  59.6770000  55.0550000  -5.2080000  60.0470000  54.8720000
  -6.6550000  58.8910000  53.8090000  -7.5730000  58.3470000  54.0310000
  -6.8520000  59.5940000  53.0000000  -5.5590000  57.9200000  53.3440000
  -5.2690000  57.2690000  54.1690000  -4.6820000  58.5090000  53.0720000
  -5.9760000  57.0410000  52.1440000  -7.1840000  56.7590000  51.9490000
  -5.0690000  56.6070000  51.3920000  -7.0920000  60.9250000  55.2780000
  -6.6470000  62.0390000  55.0030000  -8.3030000  60.7640000  55.8280000
  -8.6170000  59.8180000  55.9910000  -9.1680000  61.8690000  56.2920000
  -9.3970000  62.5010000  55.4340000 -10.5070000  61.3370000  56.8500000
 -10.3100000  60.5300000  57.5560000 -11.3420000  62.4080000  57.5660000
 -10.8400000  62.7380000  58.4760000 -11.5010000  63.2640000  56.9100000
 -12.3090000  61.9940000  57.8510000 -11.3680000  60.7930000  55.7070000
 -12.2810000  60.3530000  56.1080000 -10.8270000  60.0210000  55.1590000
 -11.6280000  61.5990000  55.0210000  -8.4540000  62.7660000  57.3040000
  -8.4440000  63.9850000  57.1460000  -7.8430000  62.1830000  58.3390000
  -7.9180000  61.1800000  58.4330000  -7.0860000  62.9130000  59.3640000
  -7.7560000  63.6200000  59.8540000  -6.5980000  61.9190000  60.4260000
  -6.0330000  61.1200000  59.9450000  -7.4630000  61.4670000  60.9130000
  -5.7270000  62.5410000  61.4850000  -6.1730000  63.3170000  62.5610000
  -5.0660000  63.6410000  63.2530000  -5.0480000  64.2320000  64.1570000
  -3.9710000  63.1650000  62.6380000  -3.0200000  63.3430000  62.9270000
  -4.3660000  62.4630000  61.5240000  -3.7310000  61.9490000  60.8180000
  -5.9370000  63.7400000  58.7700000  -5.8170000  64.9230000  59.0840000
  -5.1410000  63.1530000  57.8700000  -5.2760000  62.1700000  57.6820000
  -4.0970000  63.8550000  57.1190000  -3.4010000  64.2980000  57.8310000
  -3.3240000  62.8320000  56.2770000  -3.9860000  62.3560000  55.5530000
  -2.5140000  63.3310000  55.7460000  -2.8990000  62.0670000  56.9260000
  -4.6660000  65.0030000  56.2660000  -4.2020000  66.1380000  56.3680000
  -5.7160000  64.7440000  55.4780000  -6.0600000  63.7960000  55.4220000
  -6.4060000  65.7720000  54.6950000  -5.6970000  66.1920000  53.9820000
  -7.5420000  65.1220000  53.9010000  -7.1360000  64.3750000  53.2180000
  -8.0600000  65.8900000  53.3270000  -8.2540000  64.6410000  54.5720000
  -6.9050000  66.9330000  55.5730000  -6.7000000  68.0930000  55.2220000
  -7.4860000  66.6390000  56.7450000  -7.6590000  65.6650000  56.9490000
  -7.9020000  67.6450000  57.7360000  -8.5360000  68.3680000  57.2220000
  -8.7700000  66.9750000  58.8170000  -9.5870000  66.4540000  58.3160000
  -8.1810000  66.2430000  59.3700000  -9.3670000  68.0040000  59.7940000
  -9.6620000  68.8930000  59.2370000  -8.6070000  68.2940000  60.5190000
 -10.6120000  67.4910000  60.5360000 -10.9730000  68.2900000  61.1830000
 -11.3890000  67.2700000  59.8040000 -10.3420000  66.2410000  61.3870000
  -9.5540000  66.4710000  62.1040000  -9.9890000  65.4390000  60.7380000
 -11.5720000  65.8020000  62.1060000 -11.3990000  64.9780000  62.6640000
 -12.3180000  65.5800000  61.4630000 -11.9110000  66.5210000  62.7300000
  -6.7270000  68.4590000  58.2910000  -6.8390000  69.6780000  58.3640000
  -5.5820000  67.8390000  58.5960000  -5.5560000  66.8300000  58.5580000
  -4.3470000  68.5660000  58.9590000  -4.5310000  69.1170000  59.8810000
  -3.1730000  67.6130000  59.2080000  -2.9510000  67.0460000  58.3040000
  -2.2900000  68.1830000  59.4950000  -3.5030000  66.7210000  60.2480000
  -2.8950000  65.9780000  60.2090000  -3.9410000  69.5930000  57.9010000
  -3.7360000  70.7610000  58.2200000  -3.8430000  69.1820000  56.6340000
  -4.0320000  68.2150000  56.4140000  -3.4490000  70.0960000  55.5590000
  -2.6200000  70.7020000  55.9270000  -2.9240000  69.2980000  54.3490000
  -3.6530000  68.5370000  54.0700000  -2.8580000  69.9970000  53.5160000
  -1.5260000  68.6430000  54.4990000  -1.2280000  68.2950000  53.5090000
  -1.4670000  67.4080000  55.3910000  -1.6980000  67.6590000  56.4270000
  -2.1670000  66.6600000  55.0180000  -0.4650000  66.9800000  55.3540000
  -0.4540000  69.6200000  54.9900000   0.5330000  69.1790000  54.8510000
  -0.5910000  69.8330000  56.0510000  -0.5020000  70.5520000  54.4270000
  -4.5410000  71.1350000  55.2270000  -4.2120000  72.2940000  54.9790000
  -5.8280000  70.7920000  55.3370000  -6.0590000  69.8180000  55.4760000
  -6.9310000  71.7570000  55.2800000  -6.8860000  72.2640000  54.3160000
  -8.2670000  71.0080000  55.3500000  -8.3770000  70.5180000  56.3170000
  -8.3170000  70.2600000  54.5590000  -9.0870000  71.7140000  55.2150000
  -6.8240000  72.8370000  56.3780000  -6.9940000  74.0230000  56.0940000
  -6.4960000  72.4520000  57.6200000  -6.4290000  71.4620000  57.8070000
  -6.1870000  73.3870000  58.7180000  -7.0710000  74.0050000  58.8760000
  -5.9300000  72.6300000  60.0460000  -5.2510000  71.8000000  59.8510000
  -5.2740000  73.5240000  61.1150000  -4.2770000  73.8290000  60.7970000
  -5.8840000  74.4110000  61.2910000  -5.1640000  72.9800000  62.0530000
  -7.2600000  72.0560000  60.5870000  -7.8430000  72.8540000  61.0470000
  -7.8520000  71.6570000  59.7630000  -7.0740000  70.9190000  61.6010000
  -6.4750000  70.1210000  61.1620000  -6.5870000  71.2860000  62.5050000
  -8.0500000  70.5170000  61.8730000  -5.0690000  74.3680000  58.3230000
  -5.2460000  75.5720000  58.5040000  -3.9540000  73.8970000  57.7400000
  -3.8570000  72.8970000  57.6360000  -2.9030000  74.7820000  57.1890000
  -2.4870000  75.3460000  58.0250000  -1.7300000  74.0070000  56.5360000
  -2.1180000  73.4630000  55.6740000  -0.6650000  74.9830000  56.0070000
  -1.0850000  75.6270000  55.2340000  -0.2970000  75.6230000  56.8090000
   0.1690000  74.4270000  55.5790000  -1.0500000  72.9680000  57.4540000
  -0.3530000  72.3880000  56.8490000  -1.8000000  72.2710000  57.8290000
  -0.2780000  73.5290000  58.6540000   0.5630000  74.1380000  58.3200000
  -0.9370000  74.1240000  59.2860000   0.1200000  72.6940000  59.2300000
  -3.4800000  75.8300000  56.2170000  -3.2320000  77.0230000  56.4010000
  -4.2550000  75.4250000  55.1950000  -4.4320000  74.4380000  55.0750000
  -4.8020000  76.3970000  54.2150000  -3.9600000  77.0180000  53.9110000
  -5.3470000  75.7840000  52.8990000  -5.2230000  76.5490000  52.1320000
  -6.8310000  75.3970000  52.8900000  -7.0310000  74.6260000  53.6340000
  -7.1030000  75.0130000  51.9060000  -7.4580000  76.2670000  53.0860000
  -4.5560000  74.5560000  52.4410000  -4.8640000  73.6750000  53.0040000
  -4.7350000  74.3820000  51.3800000  -3.4890000  74.7230000  52.5920000
  -5.8030000  77.3680000  54.8490000  -5.7900000  78.5560000  54.5260000
  -6.6190000  76.8950000  55.7980000  -6.5990000  75.9040000  55.9910000
  -7.5290000  77.7320000  56.5850000  -8.0990000  77.1000000  57.2660000
  -8.2290000  78.2330000  55.9170000  -6.7960000  78.7920000  57.4120000
  -7.1730000  79.9630000  57.3910000  -5.7100000  78.4090000  58.0930000
  -5.4700000  77.4280000  58.0900000  -4.8450000  79.3320000  58.8380000
  -5.4690000  79.9240000  59.5080000  -3.8350000  78.5350000  59.6850000
  -3.0800000  79.2150000  60.0780000  -3.3290000  77.8200000  59.0360000
  -4.4750000  77.7830000  60.8680000  -5.3600000  77.2400000  60.5340000
  -3.4780000  76.7750000  61.4300000  -3.1830000  76.0800000  60.6440000
  -3.9500000  76.2110000  62.2350000  -2.5950000  77.2860000  61.8140000
  -4.8830000  78.7310000  61.9970000  -5.2810000  78.1550000  62.8320000
  -4.0210000  79.3050000  62.3380000  -5.6600000  79.4130000  61.6540000
  -4.1330000  80.3360000  57.9230000  -4.0410000  81.5110000  58.2710000
  -3.6610000  79.9110000  56.7450000  -3.7110000  78.9250000  56.5300000
  -3.1100000  80.8290000  55.7410000  -2.2750000  81.3690000  56.1880000
  -2.5580000  80.0420000  54.5420000  -3.3590000  79.4660000  54.0780000
  -1.8090000  79.3350000  54.8990000  -1.9310000  80.9370000  53.4920000
  -2.7340000  81.5190000  52.4940000  -3.7890000  81.2920000  52.4430000
  -2.1760000  82.4270000  51.5800000  -2.8030000  82.8920000  50.8330000
  -0.8080000  82.7400000  51.6460000  -0.3840000  83.4400000  50.9420000
   0.0030000  82.1460000  52.6280000   1.0510000  82.4000000  52.6890000
  -0.5590000  81.2480000  53.5540000   0.0620000  80.8110000  54.3220000
  -4.1410000  81.8940000  55.3310000  -3.8700000  83.0900000  55.4450000
  -5.3480000  81.4710000  54.9380000  -5.5140000  80.4770000  54.8700000
  -6.4510000  82.3760000  54.6160000  -6.1560000  82.9820000  53.7600000
  -7.6710000  81.5410000  54.2070000  -7.4080000  80.8870000  53.3760000
  -8.0150000  80.9320000  55.0430000  -8.4790000  82.2020000  53.8930000
  -6.7620000  83.3420000  55.7750000  -6.7860000  84.5540000  55.5720000
  -6.9250000  82.8290000  57.0000000  -6.9090000  81.8240000  57.0980000
  -7.1920000  83.6270000  58.2030000  -8.1440000  84.1370000  58.0570000
  -7.3300000  82.6660000  59.3990000  -6.4040000  82.0980000  59.4900000
  -8.1340000  81.9600000  59.1890000  -7.6080000  83.3410000  60.7550000
  -6.8090000  84.0460000  60.9870000  -8.9460000  84.0810000  60.7690000
  -9.1310000  84.4880000  61.7640000  -8.9240000  84.9100000  60.0620000
  -9.7540000  83.4000000  60.5040000  -7.6360000  82.2800000  61.8530000
  -7.8160000  82.7520000  62.8190000  -6.6760000  81.7660000  61.8920000
  -8.4250000  81.5540000  61.6550000  -6.1280000  84.7150000  58.4550000
  -6.4760000  85.8570000  58.7550000  -4.8400000  84.3770000  58.3340000
  -4.6100000  83.4110000  58.1500000  -3.7410000  85.3350000  58.4900000
  -3.8860000  85.8730000  59.4270000  -2.4200000  84.5650000  58.5880000
  -2.3480000  83.8720000  57.7490000  -1.5830000  85.2620000  58.5390000
  -2.3360000  83.6550000  60.1610000  -2.1530000  84.7180000  60.9500000
  -3.6580000  86.4060000  57.3840000  -3.2660000  87.5370000  57.6770000
  -4.0190000  86.0830000  56.1350000  -4.2940000  85.1290000  55.9520000
  -3.7910000  86.9690000  54.9770000  -3.0570000  87.7290000  55.2450000
  -3.1760000  86.1570000  53.8260000  -3.7040000  85.2110000  53.7060000
  -3.2910000  86.7180000  52.8980000  -1.7120000  85.9090000  54.0150000
  -1.1410000  84.7860000  54.5040000  -1.6750000  83.8850000  54.7700000
   0.2210000  84.9780000  54.6420000   0.8490000  84.2740000  55.0020000
   0.5940000  86.2470000  54.2560000   1.8160000  86.9340000  54.2680000
   2.7090000  86.4530000  54.6390000   1.8590000  88.2540000  53.7860000
   2.7860000  88.8070000  53.8070000   0.6930000  88.8590000  53.2820000
   0.7360000  89.8710000  52.9080000  -0.5330000  88.1650000  53.2910000
  -1.4270000  88.6460000  52.9230000  -0.6160000  86.8490000  53.7970000
  -5.0270000  87.7520000  54.5190000  -4.8840000  88.8900000  54.0690000
  -6.2410000  87.2160000  54.6920000  -6.3070000  86.2870000  55.0840000
  -7.4900000  87.8990000  54.3260000  -7.4570000  88.0680000  53.2500000
  -8.7160000  87.0100000  54.6260000  -8.5980000  86.5680000  55.6160000
  -9.6110000  87.6310000  54.6550000  -8.9460000  85.8890000  53.5940000
  -8.0090000  85.3710000  53.3890000  -9.9560000  84.8770000  54.1360000
 -10.1140000  84.0840000  53.4050000 -10.9060000  85.3710000  54.3430000
  -9.5760000  84.4350000  55.0570000  -9.5020000  86.4360000  52.2770000
  -8.7990000  87.1420000  51.8340000 -10.4510000  86.9420000  52.4500000
  -9.6570000  85.6170000  51.5750000  -7.6460000  89.3080000  54.9360000
  -8.0590000  90.1910000  54.1890000  -7.2900000  89.5870000  56.2090000
  -6.9540000  88.6360000  57.2600000  -5.9010000  88.3660000  57.1880000
  -7.5800000  87.7450000  57.2150000  -7.1990000  89.3730000  58.5720000
  -8.2550000  89.3140000  58.8370000  -6.5770000  88.9790000  59.3760000
  -6.8340000  90.8120000  58.2120000  -5.7500000  90.9250000  58.2190000
  -7.3010000  91.5290000  58.8880000  -7.3850000  90.9330000  56.7860000
  -8.4420000  91.1910000  56.8510000  -6.6840000  92.0250000  55.9650000
  -7.2990000  93.0510000  55.6800000  -5.4340000  91.8040000  55.5250000
  -4.9990000  90.9200000  55.7460000  -4.7280000  92.7310000  54.6240000
  -4.6590000  93.7050000  55.1080000  -3.3130000  92.2140000  54.2920000
  -3.3760000  91.1550000  54.0410000  -2.9550000  92.7330000  53.4040000
  -2.2640000  92.4100000  55.3940000  -2.6080000  91.9470000  56.3200000
  -0.9630000  91.7450000  54.9570000  -0.5910000  92.2040000  54.0400000
  -1.1340000  90.6840000  54.7760000  -0.2110000  91.8520000  55.7390000
  -1.9590000  93.8900000  55.6340000  -2.8450000  94.4210000  55.9820000
  -1.6050000  94.3560000  54.7150000  -1.1850000  93.9790000  56.3970000
  -5.4890000  92.9590000  53.3140000  -5.7030000  94.1030000  52.9150000
  -5.9030000  91.8790000  52.6480000  -5.6900000  90.9660000  53.0210000
  -6.6530000  91.9680000  51.3950000  -6.0560000  92.5370000  50.6820000
  -6.8630000  90.5690000  50.8100000  -7.4340000  89.9620000  51.5120000
  -7.4610000  90.6780000  49.9050000  -5.5820000  89.8480000  50.4570000
  -4.6020000  90.2880000  49.5920000  -4.6110000  91.1440000  49.0560000
  -3.6240000  89.3670000  49.5610000  -2.7280000  89.4390000  48.9620000
  -3.9210000  88.3400000  50.3750000  -5.1620000  88.6410000  50.9500000
  -5.7030000  88.0250000  51.6530000  -7.9850000  92.7220000  51.5560000
  -8.2740000  93.6240000  50.7740000  -8.7610000  92.4090000  52.5970000
  -8.4560000  91.6520000  53.1910000 -10.0070000  93.1010000  52.9650000
 -10.6990000  93.0180000  52.1270000 -10.6610000  92.4030000  54.1820000
  -9.9000000  92.2680000  54.9500000 -11.7970000  93.2480000  54.7870000
 -12.2770000  92.7130000  55.6070000 -12.5430000  93.4730000  54.0250000
 -11.4050000  94.1780000  55.1970000 -11.2030000  91.0140000  53.7660000
 -12.1110000  91.1380000  53.1760000 -10.4730000  90.5050000  53.1350000
 -11.4950000  90.0850000  54.9510000 -10.6090000  89.9880000  55.5780000
 -11.7710000  89.1000000  54.5740000 -12.3220000  90.4710000  55.5470000
  -9.7670000  94.6040000  53.1810000 -10.4410000  95.4290000  52.5650000
  -8.7980000  94.9710000  54.0290000  -8.2910000  94.2450000  54.5130000
  -8.3590000  96.3630000  54.2340000  -9.1890000  96.9200000  54.6680000
  -7.1890000  96.4030000  55.2430000  -6.4730000  95.6270000  54.9730000
  -6.4490000  97.7480000  55.2140000  -5.9680000  97.9060000  54.2480000
  -5.6630000  97.7500000  55.9690000  -7.1420000  98.5660000  55.4100000
  -7.7160000  96.1240000  56.6710000  -8.4100000  95.2840000  56.6450000
  -8.2670000  96.9920000  57.0340000  -6.6150000  95.7710000  57.6810000
  -6.0170000  94.9430000  57.3030000  -5.9710000  96.6310000  57.8670000
  -7.0760000  95.4740000  58.6230000  -8.0300000  97.0540000  52.8970000
  -8.5390000  98.1440000  52.6230000  -7.2200000  96.4180000  52.0460000
  -6.8120000  95.5420000  52.3380000  -6.8910000  96.9250000  50.7120000
  -6.4320000  97.9070000  50.8230000  -5.8640000  95.9870000  50.0490000
  -5.7850000  96.2260000  48.9890000  -6.2100000  94.9560000  50.1190000
  -4.4690000  96.0800000  50.6600000  -4.1140000  97.0030000  51.3800000
  -3.6170000  95.1180000  50.3750000  -3.8900000  94.3400000  49.7910000
  -2.6970000  95.1700000  50.7880000  -8.1410000  97.1440000  49.8380000
  -8.2600000  98.1970000  49.2110000  -9.1040000  96.2150000  49.8350000
  -8.9440000  95.3460000  50.3260000 -10.3950000  96.3970000  49.1670000
 -10.2090000  96.6020000  48.1130000 -11.2200000  95.1030000  49.2540000
 -12.2250000  95.2800000  48.8700000 -11.3060000  94.7880000  50.2950000
 -10.4410000  93.7780000  48.2850000 -10.6550000  94.3030000  47.0760000
 -11.1900000  97.6000000  49.7070000 -11.7200000  98.3630000  48.9020000
 -11.2370000  97.8330000  51.0260000 -10.8080000  97.1670000  51.6530000
 -11.8530000  99.0450000  51.5890000 -12.8820000  99.0970000  51.2310000
 -11.8970000  98.9970000  53.1250000 -10.9570000  98.6040000  53.5120000
 -11.9940000 100.0160000  53.4990000 -13.0600000  98.2030000  53.6910000
 -14.3650000  98.7250000  53.6000000 -14.5350000  99.6780000  53.1200000
 -15.4520000  98.0150000  54.1390000 -16.4510000  98.4200000  54.0690000
 -15.2380000  96.7810000  54.7760000 -16.0720000  96.2370000  55.1940000
 -13.9360000  96.2600000  54.8760000 -13.7740000  95.3160000  55.3750000
 -12.8480000  96.9690000  54.3350000 -11.8490000  96.5690000  54.4250000
 -11.1680000 100.3290000  51.0950000 -11.8500000 101.2240000  50.5910000
  -9.8350000 100.4080000  51.1750000  -9.3330000  99.6590000  51.6290000
  -9.0570000 101.5360000  50.6310000  -9.3470000 102.4410000  51.1650000
  -7.5500000 101.3260000  50.8570000  -7.2450000 100.3570000  50.4600000
  -6.6930000 102.4110000  50.2090000  -5.6540000 102.2890000  50.5160000
  -6.7340000 102.3240000  49.1230000  -7.0440000 103.3980000  50.5060000
  -7.2770000 101.3680000  52.2360000  -6.4950000 101.9120000  52.3500000
  -9.3590000 101.7780000  49.1480000  -9.5940000 102.9160000  48.7370000
  -9.3510000 100.7130000  48.3410000  -9.1210000  99.8160000  48.7430000
  -9.6150000 100.7550000  46.9050000  -8.9320000 101.4820000  46.4650000
  -9.3010000  99.3750000  46.3190000 -10.0220000  98.6530000  46.7030000
  -8.3240000  99.0490000  46.6770000  -9.2970000  99.3200000  44.8070000
  -8.4730000 100.1880000  44.0640000  -7.8400000 100.9040000  44.5650000
  -8.4870000 100.1430000  42.6600000  -7.8710000 100.8270000  42.0940000
  -9.3100000  99.2170000  41.9940000  -9.3230000  99.1840000  40.9150000
 -10.1220000  98.3430000  42.7370000 -10.7610000  97.6330000  42.2340000
 -10.1220000  98.4000000  44.1390000 -10.7630000  97.7370000  44.7010000
 -11.0430000 101.1930000  46.5320000 -11.2280000 102.2100000  45.8600000
 -12.0520000 100.4120000  46.9370000 -11.8390000  99.6060000  47.5070000
 -13.4470000 100.5970000  46.5210000 -13.4540000 100.8310000  45.4570000
 -14.2380000  99.2950000  46.7170000 -15.2810000  99.4830000  46.4600000
 -14.2120000  99.0230000  47.7720000 -13.7720000  98.1190000  45.8760000
 -13.7720000  98.2100000  44.4690000 -14.0820000  99.1230000  43.9830000
 -13.3780000  97.1090000  43.6880000 -13.3760000  97.1840000  42.6110000
 -12.9860000  95.9110000  44.3100000 -12.6800000  95.0680000  43.7090000
 -12.9930000  95.8140000  45.7130000 -12.7040000  94.8900000  46.1930000
 -13.3890000  96.9140000  46.4930000 -13.4140000  96.8290000  47.5700000
 -14.1640000 101.7600000  47.2180000 -15.1160000 102.3000000  46.6510000
 -13.7330000 102.1530000  48.4230000 -12.9580000 101.6640000  48.8480000
 -14.3250000 103.2590000  49.1770000 -15.1680000 103.6670000  48.6190000
 -14.9230000 102.7250000  50.4860000 -15.5190000 101.8360000  50.2770000
 -14.1120000 102.4380000  51.1560000 -15.9820000 103.9380000  51.3190000
 -13.3240000 104.4190000  49.3880000 -12.7960000 104.5840000  50.4910000
 -13.0810000 105.2740000  48.3730000 -13.5870000 105.1910000  47.0080000
 -14.6590000 104.9940000  46.9800000 -13.0450000 104.4140000  46.4690000
 -13.2990000 106.5510000  46.3720000 -13.1170000 106.4640000  45.3010000
 -14.1280000 107.2310000  46.5660000 -12.0560000 107.0240000  47.1230000
 -11.1720000 106.5600000  46.6850000 -11.9610000 108.1100000  47.1050000
 -12.2640000 106.4800000  48.5390000 -11.2950000 106.2160000  48.9630000
 -12.9320000 107.5170000  49.4650000 -12.2420000 108.3280000  50.0840000
 -14.2660000 107.4780000  49.5960000 -14.7800000 106.8430000  49.0010000
 -15.0330000 108.2860000  50.5570000 -14.7120000 109.3240000  50.4720000
 -16.5310000 108.2280000  50.2150000 -17.0790000 108.7890000  50.9720000
 -16.8600000 107.1900000  50.2710000 -16.9020000 108.8060000  48.8350000
 -16.1760000 109.6780000  48.2970000 -17.9610000 108.4080000  48.2930000
 -14.8160000 107.8700000  52.0270000 -14.9560000 108.7000000  52.9300000
 -14.4840000 106.6010000  52.2860000 -14.3300000 105.9760000  51.5080000
 -14.1350000 106.1060000  53.6170000 -14.9140000 106.4060000  54.3170000
 -14.0580000 104.5710000  53.6180000 -13.7050000 104.2620000  54.6010000
 -13.3080000 104.2450000  52.8970000 -15.6080000 103.6750000  53.3040000
 -12.7990000 106.7060000  54.0870000 -11.8310000 106.7730000  53.3220000
 -12.7180000 107.0940000  55.3640000 -13.5350000 107.0130000  55.9530000
 -11.4290000 107.3200000  56.0300000 -10.9240000 108.1440000  55.5270000
 -11.6400000 107.7310000  57.4940000 -12.1650000 108.6850000  57.5210000
 -10.6680000 107.8600000  57.9720000 -12.3940000 106.7650000  58.2100000
 -12.4970000 107.0790000  59.1110000 -10.5420000 106.0700000  55.9140000
 -11.0250000 104.9320000  55.9700000  -9.2370000 106.2710000  55.7110000
  -8.8830000 107.2150000  55.6640000  -8.2900000 105.1630000  55.5920000
  -8.6370000 104.5190000  54.7840000  -6.9090000 105.7040000  55.2060000
  -6.4210000 106.1350000  56.0800000  -7.0240000 106.4890000  54.4580000
  -6.0380000 104.6270000  54.6180000  -5.3460000 103.6490000  55.2990000
  -5.2590000 103.5560000  56.3010000  -4.8450000 102.7880000  54.3970000
  -4.2560000 101.9150000  54.6360000  -5.2060000 103.1550000  53.1550000
  -5.9580000 104.3260000  53.2860000  -6.4470000 104.8650000  52.4880000
  -8.2360000 104.3280000  56.8830000  -8.3190000 104.8840000  57.9850000
  -8.0720000 103.0040000  56.7620000  -8.0150000 102.6030000  55.8370000
  -7.7710000 102.1400000  57.9060000  -8.6530000 102.1150000  58.5450000
  -7.5120000 100.7200000  57.3910000  -7.2170000 100.0740000  58.2170000
  -8.4180000 100.3220000  56.9340000  -6.7140000 100.7360000  56.6480000
  -6.5670000 102.7020000  58.7050000  -5.5670000 103.0990000  58.0910000
  -6.6490000 102.7900000  60.0470000  -7.7290000 102.3060000  60.8960000
  -7.9810000 101.2700000  60.6710000  -8.6040000 102.9440000  60.7670000
  -7.2160000 102.4240000  62.3290000  -8.0270000 102.5930000  63.0370000
  -6.6500000 101.5320000  62.5980000  -6.2720000 103.6220000  62.2480000
  -5.5200000 103.6060000  63.0370000  -6.8540000 104.5420000  62.3010000
  -5.6540000 103.4930000  60.8530000  -5.4990000 104.4910000  60.4440000
  -4.3080000 102.7610000  60.8680000  -4.2440000 101.5380000  60.7480000
  -3.2210000 103.5160000  61.0470000  -3.3550000 104.5120000  61.1450000
  -1.8390000 103.0240000  60.9770000  -1.6500000 102.6980000  59.9550000
  -0.9100000 104.2200000  61.2700000  -1.1460000 104.6430000  62.2470000
  -1.1320000 104.9840000  60.5250000   0.5950000 103.8910000  61.2030000
   0.7460000 103.0370000  60.5430000   1.3780000 105.0750000  60.6340000
   2.4410000 104.8360000  60.5980000   1.2280000 105.9570000  61.2560000
   1.0360000 105.2870000  59.6210000   1.1800000 103.5850000  62.5850000
   2.2400000 103.3520000  62.4930000   0.6780000 102.7290000  63.0350000
   1.0630000 104.4480000  63.2400000  -1.5810000 101.8080000  61.8850000
  -0.9500000 100.8400000  61.4580000  -2.1100000 101.8200000  63.1150000
  -2.6150000 102.6420000  63.4150000  -2.0080000 100.6790000  64.0330000
  -0.9510000 100.4460000  64.1640000  -2.5670000 101.0520000  65.4160000
  -2.3150000 100.2470000  66.1070000  -2.0510000 101.9450000  65.7690000
  -4.0480000 101.2800000  65.5070000  -4.6560000 102.4880000  65.5120000
  -4.1460000 103.4390000  65.4660000  -6.0260000 102.3210000  65.5810000
  -6.6770000 103.0920000  65.6090000  -6.3740000 100.9880000  65.6130000
  -7.6080000 100.3230000  65.6530000  -8.5300000 100.8850000  65.6530000
  -7.6270000  98.9180000  65.6980000  -8.5670000  98.3890000  65.7290000
  -6.4160000  98.2030000  65.7140000  -6.4350000  97.1240000  65.7580000
  -5.1820000  98.8810000  65.6730000  -4.2610000  98.3170000  65.6820000
  -5.1270000 100.2930000  65.6030000  -2.6730000  99.4140000  63.4670000
  -2.1090000  98.3280000  63.5880000  -3.8330000  99.5390000  62.8070000
  -4.2170000 100.4660000  62.6880000  -4.5290000  98.4180000  62.1690000
  -4.5630000  97.6060000  62.8960000  -5.9820000  98.8080000  61.8410000
  -6.4730000  99.1230000  62.7610000  -5.9710000  99.6520000  61.1520000
  -6.8140000  97.6800000  61.1980000  -6.3560000  97.3840000  60.2540000
  -6.9370000  96.4480000  62.0970000  -5.9620000  95.9770000  62.2240000
  -7.6040000  95.7200000  61.6370000  -7.3330000  96.7350000  63.0710000
  -8.2240000  98.1850000  60.8980000  -8.7150000  98.4980000  61.8190000
  -8.8080000  97.3930000  60.4290000  -8.1750000  99.0290000  60.2100000
  -3.7680000  97.8960000  60.9420000  -3.6780000  96.6820000  60.7600000
  -3.1710000  98.7890000  60.1410000  -3.3200000  99.7700000  60.3310000
  -2.2890000  98.4020000  59.0300000  -2.8720000  97.8230000  58.3140000
  -1.7060000  99.6290000  58.3000000  -1.0720000  99.2770000  57.4860000
  -1.0680000 100.1940000  58.9800000  -2.7490000 100.5890000  57.7200000
  -2.2220000 101.3660000  57.1670000  -3.2750000 101.0760000  58.5410000
  -3.9870000  99.8530000  56.6220000  -2.9360000  99.1330000  55.3310000
  -3.5580000  98.7770000  54.5090000  -2.2460000  99.8890000  54.9570000
  -2.3700000  98.2940000  55.7350000  -1.1440000  97.5040000  59.5140000
  -0.9790000  96.3850000  59.0250000  -0.3760000  97.9610000  60.5090000
  -0.5400000  98.8900000  60.8700000   0.7380000  97.1790000  61.0470000
   1.2900000  96.7880000  60.1930000   1.7160000  98.0770000  61.8150000
   1.1710000  98.6460000  62.5680000   2.4380000  97.4460000  62.3330000
   2.4870000  99.0170000  60.8980000   3.3330000  98.4840000  59.9030000
   3.4630000  97.4150000  59.8180000   3.9960000  99.3320000  58.9970000
   4.6240000  98.9190000  58.2220000   3.8300000 100.7280000  59.0940000
   4.4520000 101.5480000  58.2050000   4.2180000 102.4690000  58.3440000
   3.0150000 101.2680000  60.1120000   2.9070000 102.3390000  60.1960000
   2.3390000 100.4120000  61.0060000   1.6970000 100.8270000  61.7690000
   0.2920000  95.9330000  61.8250000   0.9510000  94.9020000  61.7120000
  -0.8500000  95.9560000  62.5240000  -1.3310000  96.8370000  62.6410000
  -1.4600000  94.7540000  63.1090000  -0.7370000  94.3150000  63.7960000
  -2.7050000  95.1600000  63.9210000  -2.3960000  95.8350000  64.7190000
  -3.3820000  95.7050000  63.2620000  -3.4910000  93.9890000  64.5390000
  -3.8400000  93.3230000  63.7500000  -2.6520000  93.1840000  65.5320000
  -3.2690000  92.4100000  65.9910000  -2.2610000  93.8390000  66.3100000
  -1.8240000  92.6960000  65.0180000  -4.7150000  94.5340000  65.2740000
  -5.3490000  95.0800000  64.5760000  -4.4040000  95.2030000  66.0770000
  -5.2900000  93.7100000  65.6950000  -1.7810000  93.6890000  62.0450000
  -1.4550000  92.5180000  62.2290000  -2.3820000  94.0840000  60.9190000
  -2.6610000  95.0500000  60.8300000  -2.6500000  93.1870000  59.7950000
  -3.2060000  92.3300000  60.1740000  -3.5560000  93.9140000  58.7960000
  -3.0450000  94.7840000  58.3830000  -3.8340000  93.2350000  57.9900000
  -4.4650000  94.2440000  59.2990000  -1.3570000  92.6380000  59.1540000
  -1.2750000  91.4390000  58.8820000  -0.3270000  93.4780000  58.9630000
  -0.4760000  94.4580000  59.1560000   1.0200000  93.0420000  58.5400000
   0.9280000  92.5580000  57.5670000   1.9790000  94.2460000  58.3600000
   1.9240000  94.8700000  59.2520000   3.4410000  93.7900000  58.1950000
   3.5300000  93.1280000  57.3340000   3.7900000  93.2670000  59.0860000
   4.0990000  94.6470000  58.0540000   1.5520000  95.0840000  57.1320000
   1.7700000  94.5280000  56.2200000   0.4760000  95.2540000  57.1660000
   2.2030000  96.4690000  57.0400000   1.9530000  97.0520000  57.9260000
   1.8150000  96.9880000  56.1630000   3.2860000  96.3880000  56.9420000
   1.5710000  91.9740000  59.5000000   1.8600000  90.8560000  59.0700000
   1.6500000  92.2860000  60.7980000   1.3870000  93.2220000  61.0720000
   2.0500000  91.3600000  61.8700000   3.1060000  91.1210000  61.7420000
   1.8850000  92.0500000  63.2420000   0.9530000  92.6160000  63.2460000
   1.8340000  91.0940000  64.4360000   2.7460000  90.4990000  64.4710000
   0.9690000  90.4340000  64.3680000   1.7400000  91.6660000  65.3600000
   3.0450000  93.0270000  63.4800000   3.9880000  92.4830000  63.5390000
   3.1090000  93.7450000  62.6620000   2.8860000  93.5750000  64.4090000
   1.2980000  90.0260000  61.7820000   1.9300000  88.9770000  61.6770000
  -0.0400000  90.0560000  61.7530000  -0.4970000  90.9530000  61.8440000
  -0.8890000  88.8640000  61.6560000  -0.6680000  88.2270000  62.5130000
  -2.3610000  89.3090000  61.7510000  -2.5410000  90.0660000  60.9870000
  -2.5210000  89.7730000  62.7240000  -3.3990000  88.1890000  61.5560000
  -3.2910000  87.7660000  60.5570000  -3.2690000  87.0680000  62.5880000
  -4.0550000  86.3290000  62.4290000  -3.3620000  87.4750000  63.5950000
  -2.3050000  86.5690000  62.4920000  -4.8030000  88.7780000  61.6750000
  -4.9650000  89.1640000  62.6810000  -5.5440000  88.0070000  61.4630000
  -4.9230000  89.5900000  60.9580000  -0.6100000  88.0280000  60.3930000
  -0.5740000  86.7980000  60.4620000  -0.3810000  88.6720000  59.2470000
  -0.4670000  89.6780000  59.2330000   0.0100000  87.9830000  58.0120000
  -0.7540000  87.2390000  57.7880000   0.0250000  88.9620000  56.8370000
  -0.0530000  88.3840000  55.9170000  -0.8480000  89.6120000  56.9020000
   1.2000000  89.7450000  56.7720000   1.3390000  90.1840000  57.6150000
   1.3330000  87.2200000  58.1700000   1.4150000  86.0340000  57.8420000
   2.3430000  87.8570000  58.7710000   2.2120000  88.8260000  59.0230000
   3.6320000  87.2440000  59.0850000   4.0180000  86.7800000  58.1770000
   4.6210000  88.3390000  59.5070000   4.2460000  88.8420000  60.3990000
   5.5660000  87.8630000  59.7690000   4.9070000  89.3810000  58.4490000
   5.4660000  90.6140000  58.6800000   5.7200000  91.0080000  59.5750000
   5.6730000  91.2140000  57.5000000   6.1050000  92.1980000  57.3890000
   5.2740000  90.4240000  56.4880000   4.7880000  89.2530000  57.0860000
   4.4130000  88.3870000  56.5600000   3.5320000  86.1180000  60.1270000
   4.2710000  85.1380000  60.0180000   2.5830000  86.1860000  61.0730000
   2.0660000  87.0490000  61.1650000   2.3260000  85.1290000  62.0750000
   3.2220000  85.0230000  62.6860000   1.1590000  85.5000000  63.0160000
   0.2360000  85.5530000  62.4380000   0.9430000  84.5080000  64.1610000
   1.8770000  84.3310000  64.6940000   0.5680000  83.5610000  63.7720000
   0.2010000  84.9030000  64.8550000   1.3750000  86.7530000  63.6210000
   2.0880000  86.6700000  64.2580000   2.0580000  83.7560000  61.4470000
   2.4440000  82.7530000  62.0440000   1.4980000  83.6580000  60.2300000
   1.1970000  84.4940000  59.7500000   1.3190000  82.3470000  59.5780000
   0.6550000  81.7620000  60.2140000   0.6700000  82.4680000  58.1900000
  -0.2400000  83.0660000  58.2470000   1.3550000  82.9520000  57.4940000
   0.3230000  81.0780000  57.6720000   1.0290000  80.4850000  56.8720000
  -0.7370000  80.4860000  58.1730000  -1.3410000  80.9650000  58.8260000
  -0.9050000  79.5290000  57.9000000   2.6370000  81.5640000  59.4590000
   2.6560000  80.3550000  59.6800000   3.7460000  82.2630000  59.1940000
   3.6660000  83.2580000  59.0400000   5.0840000  81.6600000  59.1200000
   5.0810000  80.9230000  58.3170000   6.1490000  82.7130000  58.7930000
   6.3020000  83.3600000  59.6570000   7.0870000  82.2090000  58.5610000
   5.7680000  83.4990000  57.6820000   5.4690000  84.3520000  58.0050000
   5.4890000  80.9360000  60.4100000   6.2990000  80.0180000  60.3600000
   4.9410000  81.3310000  61.5650000   4.2630000  82.0790000  61.5370000
   5.1800000  80.6850000  62.8690000   6.2210000  80.3630000  62.9050000
   4.9750000  81.6840000  64.0310000   3.9480000  82.0500000  64.0190000
   5.2310000  81.0470000  65.4010000   4.4570000  80.3150000  65.6270000
   6.2030000  80.5540000  65.4110000   5.2060000  81.8110000  66.1790000
   5.9180000  82.8850000  63.8830000   5.7690000  83.5800000  64.7090000
   5.7140000  83.4120000  62.9510000   6.9550000  82.5500000  63.8790000
   4.3300000  79.4230000  63.0640000   4.8470000  78.4190000  63.5430000
   3.0270000  79.4630000  62.7450000   2.6670000  80.3120000  62.3340000
   2.0640000  78.4270000  63.1970000   2.2720000  78.2490000  64.2520000
   0.5930000  78.9010000  63.1470000  -0.0070000  78.1650000  63.6810000
   0.4080000  80.2420000  63.8680000   0.8310000  80.1840000  64.8710000
   0.8910000  81.0500000  63.3190000  -0.6550000  80.4660000  63.9540000
   0.0160000  79.0190000  61.7320000  -0.0300000  78.0380000  61.2580000
   0.6320000  79.6820000  61.1240000  -0.9970000  79.4170000  61.7800000
   2.2160000  77.0570000  62.5230000   1.9560000  76.0410000  63.1640000
   2.6350000  77.0000000  61.2530000   2.8350000  77.8730000  60.7850000
   2.6230000  75.7580000  60.4580000   1.5870000  75.4210000  60.4330000
   3.0040000  76.0800000  58.9880000   4.0380000  76.4180000  58.9280000
   2.9170000  75.1740000  58.3880000   2.1170000  77.1540000  58.3510000
   0.9180000  77.2180000  58.5800000   2.6630000  78.0400000  57.5510000
   3.6580000  78.0610000  57.3790000   2.0830000  78.8090000  57.2460000
   3.3990000  74.5760000  61.1190000   2.8020000  73.5090000  61.2820000
   4.6390000  74.7580000  61.6340000   5.5350000  75.8660000  61.3210000
   5.6040000  76.0390000  60.2470000   5.2020000  76.7730000  61.8270000
   6.9150000  75.4740000  61.8350000   7.4670000  74.9650000  61.0440000
   7.4640000  76.3460000  62.1880000   6.6090000  74.4960000  62.9640000
   7.4330000  73.8030000  63.1330000   6.3930000  75.0590000  63.8730000
   5.3510000  73.7730000  62.4670000   5.6630000  72.9500000  61.8240000
   4.5460000  73.1850000  63.6400000   4.5440000  71.9690000  63.8410000
   3.8490000  74.0260000  64.4130000   3.8510000  75.0100000  64.1850000
   3.0340000  73.5810000  65.5530000   3.6640000  72.9820000  66.2100000
   2.5350000  74.7840000  66.3650000   1.9490000  75.4430000  65.7240000
   1.8660000  74.4210000  67.1460000   3.6440000  75.5820000  67.0260000
   4.2300000  76.6740000  66.3590000   3.8840000  76.9540000  65.3750000
   5.2710000  77.3990000  66.9650000   5.7240000  78.2300000  66.4440000
   5.7240000  77.0410000  68.2460000   6.5220000  77.5990000  68.7140000
   5.1380000  75.9540000  68.9190000   5.4850000  75.6780000  69.9030000
   4.1010000  75.2240000  68.3090000   3.6580000  74.3870000  68.8280000
   1.8690000  72.6830000  65.1210000   1.6000000  71.6790000  65.7770000
   1.2100000  72.9860000  63.9960000   1.4810000  73.8200000  63.4950000
   0.1530000  72.1250000  63.4350000  -0.5990000  71.9710000  64.2090000
  -0.5430000  72.8010000  62.2330000   0.2170000  72.9870000  61.4740000
  -1.6120000  71.8830000  61.6060000  -2.3230000  71.5500000  62.3610000
  -1.1430000  71.0100000  61.1510000  -2.1500000  72.4150000  60.8210000
  -1.1640000  74.1700000  62.5960000  -1.6210000  74.5870000  61.6980000
  -0.3720000  74.8570000  62.8940000  -2.2210000  74.1500000  63.7110000
  -3.0630000  73.5170000  63.4300000  -2.5850000  75.1640000  63.8780000
  -1.7870000  73.7890000  64.6440000   0.6930000  70.7280000  63.1000000
   0.0820000  69.7310000  63.4860000   1.8570000  70.6340000  62.4450000
   2.3060000  71.4790000  62.1220000   2.5100000  69.3430000  62.1850000
   1.8000000  68.7110000  61.6510000   3.7390000  69.5290000  61.2800000
   4.1240000  68.5450000  61.0110000   4.5160000  70.0380000  61.8500000
   3.4860000  70.3030000  59.9960000   2.3380000  70.0510000  59.2160000
   1.6330000  69.2860000  59.5060000   2.0930000  70.8070000  58.0550000
   1.2120000  70.6220000  57.4580000   2.9910000  71.8200000  57.6710000
   2.7280000  72.5640000  56.5660000   3.4040000  73.2300000  56.4190000
   4.1570000  72.0570000  58.4310000   4.8600000  72.8210000  58.1330000
   4.4040000  71.2890000  59.5860000   5.2960000  71.4670000  60.1670000
   2.8660000  68.5900000  63.4770000   2.5950000  67.3950000  63.5730000
   3.3980000  69.2790000  64.4940000   3.6190000  70.2540000  64.3500000
   3.6820000  68.6910000  65.8080000   4.3640000  67.8530000  65.6640000
   4.3950000  69.7350000  66.6780000   3.7210000  70.5590000  66.9120000
   4.7190000  69.2710000  67.6090000   5.2680000  70.1290000  66.1580000
   2.4200000  68.1380000  66.5020000   2.4110000  67.0010000  66.9780000
   1.3360000  68.9190000  66.5560000   1.3970000  69.8630000  66.2000000
   0.0750000  68.4740000  67.1540000   0.3030000  68.0660000  68.1390000
  -0.8830000  69.6590000  67.3660000  -1.9010000  69.2780000  67.4420000
  -0.8500000  70.3190000  66.4990000  -0.6000000  70.4420000  68.6370000
  -0.1120000  71.7630000  68.5860000   0.0490000  72.2430000  67.6320000
   0.1640000  72.4660000  69.7760000   0.5450000  73.4750000  69.7310000
  -0.0590000  71.8490000  71.0270000   0.2050000  72.5160000  72.1820000
   0.5500000  73.3960000  72.0120000  -0.5660000  70.5330000  71.0800000
  -0.7420000  70.0690000  72.0380000  -0.8370000  69.8350000  69.8880000
  -1.2260000  68.8280000  69.9350000  -0.5940000  67.3330000  66.3750000
  -1.0260000  66.3650000  67.0040000  -0.6740000  67.4020000  65.0370000
  -0.2940000  68.2160000  64.5760000  -1.5270000  66.4790000  64.2540000
  -2.2200000  65.9890000  64.9370000  -2.4060000  67.2610000  63.2590000
  -1.7900000  67.6640000  62.4550000  -3.1120000  66.5500000  62.8310000
  -3.1980000  68.4100000  63.9080000  -3.5140000  68.1250000  64.9120000
  -2.5440000  69.2770000  63.9950000  -4.4380000  68.8090000  63.0900000
  -4.2380000  68.6920000  62.0250000  -4.6320000  69.8660000  63.2720000
  -5.6340000  68.0470000  63.5170000  -6.0780000  68.3830000  64.3600000
  -6.1610000  66.9490000  63.0030000  -7.1230000  66.3350000  63.6270000
  -7.4670000  66.6930000  64.5060000  -7.4270000  65.4230000  63.3160000
  -5.7540000  66.4120000  61.8910000  -4.9770000  66.8030000  61.3790000
  -6.1110000  65.5180000  61.5840000  -0.8090000  65.3200000  63.5550000
  -1.4840000  64.3650000  63.1810000   0.5150000  65.3530000  63.3800000
   1.0280000  66.1570000  63.7130000   1.2570000  64.3320000  62.6090000
   0.5740000  63.5310000  62.3270000   1.8090000  64.9120000  61.2780000
   2.5960000  65.6310000  61.5050000   2.4130000  63.7640000  60.4420000
   2.8530000  64.1430000  59.5190000   1.6380000  63.0430000  60.1810000
   3.2040000  63.2520000  60.9910000   0.7110000  65.6550000  60.4730000
   0.3210000  66.4750000  61.0750000  -0.1100000  64.9690000  60.2640000
   1.1850000  66.2730000  59.1510000   1.4140000  65.4950000  58.4230000
   2.0690000  66.8870000  59.3220000   0.3920000  66.9000000  58.7430000
   2.3470000  63.7000000  63.4880000   3.4170000  64.2710000  63.6940000
   2.0860000  62.4880000  63.9980000   1.1910000  62.0700000  63.7850000
   2.9700000  61.7850000  64.9520000   3.0910000  62.4130000  65.8340000
   2.3360000  60.4560000  65.3980000   1.9640000  59.9120000  64.5300000
   3.1030000  59.8490000  65.8800000   1.1960000  60.6830000  66.4050000
   0.4370000  61.3220000  65.9540000   1.5920000  61.1900000  67.2850000
   0.5310000  59.3680000  66.8370000   0.0970000  58.8950000  65.9550000
  -0.2870000  59.5860000  67.5230000   1.4860000  58.4260000  67.4610000
   1.8550000  57.7050000  66.8580000   1.8920000  58.3920000  68.7190000
   1.4720000  59.2430000  69.6110000   1.7900000  59.1830000  70.5680000
   0.7870000  59.9360000  69.3480000   2.7450000  57.4890000  69.1070000
   3.0860000  56.7990000  68.4530000   3.0520000  57.4520000  70.0680000
   4.3850000  61.5560000  64.4260000   5.3330000  61.7210000  65.1820000
   4.5470000  61.2450000  63.1410000   3.7180000  61.0810000  62.5870000
   5.8740000  61.0820000  62.5250000   6.4080000  60.3140000  63.0860000
   5.7190000  60.5810000  61.0790000   5.3270000  61.3940000  60.4680000
   4.9960000  59.7660000  61.0510000   7.0410000  60.0930000  60.4700000
   6.9120000  60.0170000  59.3900000   7.8210000  60.8320000  60.6520000
   7.4690000  58.7140000  61.0130000   6.7750000  57.7050000  60.7450000
   8.5410000  58.6180000  61.6540000   6.7190000  62.3680000  62.6210000
   7.8720000  62.3200000  63.0520000   6.1440000  63.5340000  62.2860000
   5.1840000  63.5250000  61.9730000   6.7750000  64.8390000  62.5410000
   7.7510000  64.8490000  62.0570000   5.9430000  65.9910000  61.9470000
   4.8810000  65.7630000  62.0360000   6.1160000  66.8870000  62.5440000
   6.2790000  66.3590000  60.5110000   7.5500000  66.8830000  60.2060000
   8.2960000  66.9730000  60.9810000   7.8510000  67.3080000  58.9000000
   8.8230000  67.7240000  58.6810000   6.8840000  67.2000000  57.8850000
   7.1120000  67.5310000  56.8830000   5.6150000  66.6750000  58.1830000
   4.8660000  66.6060000  57.4080000   5.3120000  66.2600000  59.4930000
   4.3250000  65.8840000  59.7190000   7.0420000  65.0540000  64.0360000
   8.1870000  65.3010000  64.4020000   6.0350000  64.8830000  64.9080000
   5.1230000  64.6800000  64.5250000   6.1590000  65.0590000  66.3740000
   6.3610000  66.1110000  66.5730000   4.8250000  64.6750000  67.0460000
   4.7230000  63.5900000  67.0520000   3.9960000  65.0810000  66.4650000
   4.7330000  65.2020000  68.4890000   4.5500000  66.2770000  68.4760000
   5.6820000  65.0320000  68.9990000   3.6460000  64.4970000  69.3100000
   3.8550000  63.4270000  69.3080000   3.7100000  64.8590000  70.3360000
   2.2800000  64.7390000  68.8020000   2.1750000  65.4360000  68.0790000
   1.1790000  64.1780000  69.2750000   0.0070000  64.4610000  68.7880000
  -0.1070000  65.1440000  68.0530000  -0.8230000  64.0280000  69.1690000
   1.2100000  63.3170000  70.2530000   2.0950000  63.0940000  70.6860000
   0.3560000  62.9430000  70.6420000   7.3250000  64.2620000  66.9770000
   8.1740000  64.8200000  67.6680000   7.3860000  62.9630000  66.6810000
   6.6460000  62.5830000  66.1080000   8.4650000  62.0620000  67.1040000
   8.5440000  62.0920000  68.1900000   8.1370000  60.6190000  66.6830000
   9.0210000  59.9990000  66.8260000   7.8760000  60.6030000  65.6250000
   6.9940000  60.0130000  67.5170000   7.3010000  59.9930000  68.5620000
   6.1000000  60.6330000  67.4450000   6.6310000  58.5960000  67.0680000
   6.5270000  58.2810000  65.8890000   6.4200000  57.6780000  67.9890000
   6.5160000  57.9030000  68.9690000   6.2200000  56.7350000  67.6880000
   9.8250000  62.4990000  66.5460000  10.8100000  62.5370000  67.2810000
   9.8850000  62.8770000  65.2640000   9.0410000  62.8310000  64.7110000
  11.1240000  63.3810000  64.6380000  11.9000000  62.6300000  64.7900000
  10.9790000  63.5780000  63.1210000  10.3180000  64.4180000  62.9070000
  12.3330000  63.7960000  62.4540000  12.7640000  64.7400000  62.7880000
  12.2050000  63.8190000  61.3720000  13.0120000  62.9830000  62.7090000
  10.4610000  62.4190000  62.5230000   9.5260000  62.3720000  62.7370000
  11.6160000  64.6670000  65.3090000  12.7890000  64.7590000  65.6610000
  10.7260000  65.6360000  65.5550000   9.7780000  65.5170000  65.2280000
  11.0360000  66.8550000  66.3090000  11.8110000  67.4060000  65.7770000
   9.7900000  67.7520000  66.4310000   9.0380000  67.2200000  67.0140000
  10.0670000  68.6370000  67.0050000   9.1340000  68.2310000  65.1450000
   9.8540000  68.3360000  63.9380000  10.8990000  68.0680000  63.8910000
   9.2230000  68.8130000  62.7770000   9.7850000  68.8940000  61.8580000
   7.8690000  69.1830000  62.8080000   7.3800000  69.5370000  61.9130000
   7.1480000  69.0880000  64.0080000   6.1110000  69.3860000  64.0330000
   7.7790000  68.6140000  65.1730000   7.2210000  68.5510000  66.0950000
  11.6070000  66.5330000  67.6930000  12.6750000  67.0340000  68.0370000
  10.9600000  65.6440000  68.4600000  10.0750000  65.2870000  68.1310000
  11.4440000  65.2220000  69.7880000  11.5280000  66.1150000  70.4060000
  10.3970000  64.3010000  70.4390000  10.3600000  63.3450000  69.9150000
   9.4220000  64.7800000  70.3480000  10.6960000  64.0610000  71.9280000
  10.8680000  65.0170000  72.4220000  11.6020000  63.4610000  72.0180000
   9.5530000  63.3250000  72.6430000   9.3610000  62.3870000  72.1230000
   9.8660000  63.0770000  73.6570000   8.3060000  64.1220000  72.6840000
   7.5870000  63.8580000  72.0250000   8.0120000  65.1200000  73.5000000
   6.8680000  65.7350000  73.4020000   6.1950000  65.4530000  72.7040000
   6.6440000  66.4980000  74.0240000   8.8340000  65.5350000  74.4210000
   8.5850000  66.3000000  75.0310000   9.7250000  65.0720000  74.5330000
  12.8510000  64.6080000  69.7370000  13.7090000  64.9940000  70.5330000
  13.1220000  63.7280000  68.7590000  12.3580000  63.4380000  68.1650000
  14.4670000  63.1600000  68.5250000  14.8260000  62.7380000  69.4640000
  14.4390000  62.0250000  67.4840000  15.4730000  61.7900000  67.2310000
  13.9390000  62.3590000  66.5750000  13.7700000  60.7420000  68.0130000
  12.6960000  60.7840000  67.8340000  13.9290000  60.6730000  69.0890000
  14.3610000  59.4670000  67.3810000  13.9030000  58.5940000  67.8450000
  15.4230000  59.4350000  67.6230000  14.2200000  59.3700000  65.8520000
  14.4660000  60.3320000  65.4030000  14.9560000  58.6510000  65.4950000
  12.8610000  58.9200000  65.4360000  12.6560000  58.0040000  65.8100000
  12.8000000  58.8460000  64.4310000  12.1390000  59.5530000  65.7500000
  15.5150000  64.2100000  68.1320000  16.6560000  64.1050000  68.5740000
  15.1470000  65.2230000  67.3400000  14.2110000  65.2080000  66.9620000
  16.0360000  66.3460000  66.9790000  16.9830000  65.9360000  66.6260000
  15.4330000  67.1850000  65.8260000  14.3880000  67.3960000  66.0550000
  16.1650000  68.5290000  65.6540000  15.7800000  69.0720000  64.7910000
  16.0160000  69.1680000  66.5250000  17.2320000  68.3570000  65.5100000
  15.5060000  66.3870000  64.5090000  16.5450000  66.3410000  64.1810000
  15.1680000  65.3650000  64.6780000  14.6480000  66.9710000  63.3800000
  14.6820000  66.2910000  62.5290000  13.6150000  67.0780000  63.7110000
  15.0340000  67.9380000  63.0560000  16.3630000  67.2140000  68.2040000
  17.5340000  67.5080000  68.4560000  15.3320000  67.6330000  68.9480000
  14.4050000  67.3650000  68.6500000  15.4360000  68.4900000  70.1390000
  15.8180000  69.4580000  69.8140000  14.0310000  68.7350000  70.7400000
  13.5150000  67.7780000  70.8040000  14.0940000  69.3320000  72.1580000
  14.6550000  70.2660000  72.1470000  14.5710000  68.6330000  72.8450000
  13.0890000  69.5240000  72.5340000  13.2270000  69.6830000  69.8150000
  13.5790000  70.7060000  69.9450000  13.3960000  69.4160000  68.7720000
  11.7120000  69.6400000  70.0520000  11.4670000  70.0320000  71.0400000
  11.2150000  70.2540000  69.3010000  11.3480000  68.6160000  69.9680000
  16.4600000  67.9500000  71.1590000  17.3390000  68.7210000  71.5620000
  16.3600000  66.6480000  71.4990000  15.5970000  66.1490000  71.0630000
  17.1500000  65.8850000  72.5110000  16.7390000  64.8790000  72.4240000
  18.6390000  65.6600000  72.0890000  19.1490000  66.6190000  71.9970000
  19.1330000  65.0870000  72.8740000  18.8080000  64.8910000  70.7700000
  18.3990000  65.4800000  69.9490000  18.2670000  63.9470000  70.8360000
  20.2800000  64.5830000  70.4700000  20.3280000  63.9660000  69.5730000
  20.6870000  64.0090000  71.3020000  21.0650000  65.8120000  70.2400000
  20.5970000  66.5560000  69.7420000  22.3080000  66.0510000  70.6150000
  23.0310000  65.1700000  71.2450000  23.9750000  65.3860000  71.5320000
  22.6340000  64.2640000  71.4480000  22.8580000  67.2020000  70.3590000
  23.8090000  67.3870000  70.6440000  22.3350000  67.9180000  69.8760000
  16.8130000  66.1370000  74.0260000  16.7820000  66.6240000  75.1800000
  17.5800000  67.1240000  73.9530000   1.6420000 103.0100000  55.7990000
   1.3650000 104.3640000  55.6720000   0.1430000 104.7470000  55.1480000
  -0.1740000 106.1290000  54.9980000  -0.7910000 103.7770000  54.7640000
  -0.5150000 102.4240000  54.8580000   0.6820000 102.0420000  55.4110000
   0.9900000 100.5800000  55.5100000   1.9100000 100.3800000  54.3160000
   2.3130000  99.0160000  54.2020000   1.4570000  98.1160000  53.5180000
   1.8680000  96.8860000  53.3500000   0.2830000  98.6170000  53.1170000
  -0.5200000  97.7590000  52.4980000  -1.7310000  98.2890000  52.0640000
  -0.1180000  96.5010000  52.2980000  -0.7810000  95.4710000  51.7410000
   1.0480000  96.0690000  52.7200000   1.2050000  94.8120000  52.4130000
   0.0480000  94.4730000  51.8090000  -0.2690000  93.2320000  51.3250000
   0.4580000  92.0960000  51.1450000  -0.4620000  91.1820000  50.6770000
  -1.6900000  91.7760000  50.6020000  -1.5730000  93.0240000  51.0240000
   2.4590000 102.7360000  56.1490000   1.9870000 105.0020000  55.9390000
  -0.2950000 106.3040000  54.1750000  -1.6020000 104.0490000  54.4000000
  -1.1460000 101.7900000  54.6030000   0.1840000 100.0490000  55.4190000
   1.4500000 100.3780000  56.3390000   2.6970000 100.9360000  54.4230000
   1.4430000 100.6420000  53.5070000   3.0560000  98.7470000  54.5390000
  -1.8020000  99.1330000  51.9150000  -2.4080000  97.7720000  51.9440000
   1.3680000  91.9700000  51.2890000  -0.2740000  90.3040000  50.4360000
  -2.4770000  91.3680000  50.3180000
