%VERSION  VERSION_STAMP = V0001.000  DATE = 09/14/26  14:40:38                  
%FLAG TITLE                                                                     
%FORMAT(20a4)                                                                   
C5A                                                                             
%FLAG POINTERS                                                                  
%FORMAT(10I8)                                                                   
      28       7       9      21      17      30      37      46       0       0
     141       1      21      30      46      10      17       7       8       0
       0       0       0       0       0       0       0       0      28       0
       0
%FLAG ATOM_NAME                                                                 
%FORMAT(20a4)                                                                   
N   C   N1  C1  C2  C3  C4  C5  O   C6  C7  C8  C9  C10 F   C11 C12 C13 N2  H   
H1  H2  H3  H4  H5  H6  H7  H8  
%FLAG CHARGE                                                                    
%FORMAT(5E16.8)                                                                 
 -1.65914041E+01  1.57058004E+01 -1.45596177E+01  1.15128491E+01 -7.15225275E+00
 -2.46001050E-01 -5.95869210E+00  1.03812443E+01 -1.34790353E+01 -5.95869210E+00
 -2.46001050E-01 -5.36828958E+00 -1.54889550E+00  7.81736670E-01 -2.93196807E+00
 -2.46001050E+00 -3.64992669E+00  8.26563528E+00 -1.48329522E+01  7.18505289E+00
  7.18505289E+00  1.85867460E+00  2.04089760E+00  2.04089760E+00  1.85867460E+00
  3.09779100E+00  2.33245440E+00  2.49645510E+00
%FLAG ATOMIC_NUMBER                                                             
%FORMAT(10I8)                                                                   
       7       6       7       6       6       6       6       6       8       6
       6       6       6       6       9       6       6       6       7       1
       1       1       1       1       1       1       1       1
%FLAG MASS                                                                      
%FORMAT(5E16.8)                                                                 
  1.40100000E+01  1.20100000E+01  1.40100000E+01  1.20100000E+01  1.20100000E+01
  1.20100000E+01  1.20100000E+01  1.20100000E+01  1.60000000E+01  1.20100000E+01
  1.20100000E+01  1.20100000E+01  1.20100000E+01  1.20100000E+01  1.90000000E+01
  1.20100000E+01  1.20100000E+01  1.20100000E+01  1.40100000E+01  1.00800000E+00
  1.00800000E+00  1.00800000E+00  1.00800000E+00  1.00800000E+00  1.00800000E+00
  1.00800000E+00  1.00800000E+00  1.00800000E+00
%FLAG ATOM_TYPE_INDEX                                                           
%FORMAT(10I8)                                                                   
       1       2       3       2       2       2       2       2       4       2
       2       2       2       2       5       2       2       2       3       6
       6       7       7       7       7       7       7       7
%FLAG NUMBER_EXCLUDED_ATOMS                                                     
%FORMAT(10I8)                                                                   
       7       9      10      14      12       9       7       7       4       4
       4       9       8       7       4       6       4       4       3       1
       1       1       1       1       1       1       1       1
%FLAG NONBONDED_PARM_INDEX                                                      
%FORMAT(10I8)                                                                   
       1       2       4       7      11      16      22       2       3       5
       8      12      17      23       4       5       6       9      13      18
      24       7       8       9      10      14      19      25      11      12
      13      14      15      20      26      16      17      18      19      20
      21      27      22      23      24      25      26      27      28
%FLAG RESIDUE_LABEL                                                             
%FORMAT(20a4)                                                                   
C5A 
%FLAG RESIDUE_POINTER                                                           
%FORMAT(10I8)                                                                   
       1
%FLAG BOND_FORCE_CONSTANT                                                       
%FORMAT(5E16.8)                                                                 
  4.17900000E+02  4.04600000E+02  3.86490000E+02  3.88520000E+02  2.69370000E+02
  3.46070000E+02  3.54250000E+02  3.60690000E+02  5.49990000E+02  3.35440000E+02
%FLAG BOND_EQUIL_VALUE                                                          
%FORMAT(5E16.8)                                                                 
  1.38600000E+00  1.01200000E+00  1.33920000E+00  1.33770000E+00  1.48290000E+00
  1.40560000E+00  1.39860000E+00  1.08600000E+00  1.23770000E+00  1.35020000E+00
%FLAG ANGLE_FORCE_CONSTANT                                                      
%FORMAT(5E16.8)                                                                 
  7.27000000E+01  4.84000000E+01  8.29000000E+01  8.31500000E+01  7.27600000E+01
  6.76400000E+01  6.83800000E+01  6.13000000E+01  6.33300000E+01  4.47300000E+01
  6.37900000E+01  6.36700000E+01  4.49000000E+01  8.09400000E+01  6.81700000E+01
  8.05500000E+01  4.01000000E+01
%FLAG ANGLE_EQUIL_VALUE                                                         
%FORMAT(5E16.8)                                                                 
  2.04098890E+00  2.02580453E+00  2.06106020E+00  2.04622489E+00  2.22180509E+00
  2.03540385E+00  2.12249581E+00  2.11359463E+00  2.10713691E+00  2.09125441E+00
  2.06664525E+00  2.09474507E+00  2.09230160E+00  2.15111922E+00  2.14570870E+00
  2.07624457E+00  2.00922390E+00
%FLAG DIHEDRAL_FORCE_CONSTANT                                                   
%FORMAT(5E16.8)                                                                 
  4.80000000E+00  1.05000000E+00  1.00000000E+00  3.62500000E+00  7.65000000E-01
  1.10000000E+00  1.05000000E+01
%FLAG DIHEDRAL_PERIODICITY                                                      
%FORMAT(5E16.8)                                                                 
  2.00000000E+00  2.00000000E+00  2.00000000E+00  2.00000000E+00  2.00000000E+00
  2.00000000E+00  2.00000000E+00
%FLAG DIHEDRAL_PHASE                                                            
%FORMAT(5E16.8)                                                                 
  3.14159400E+00  3.14159400E+00  3.14159400E+00  3.14159400E+00  3.14159400E+00
  3.14159400E+00  3.14159400E+00
%FLAG SCEE_SCALE_FACTOR                                                         
%FORMAT(5E16.8)                                                                 
  1.20000000E+00  1.20000000E+00  1.20000000E+00  1.20000000E+00  1.20000000E+00
  0.00000000E+00  0.00000000E+00
%FLAG SCNB_SCALE_FACTOR                                                         
%FORMAT(5E16.8)                                                                 
  2.00000000E+00  2.00000000E+00  2.00000000E+00  2.00000000E+00  2.00000000E+00
  0.00000000E+00  0.00000000E+00
%FLAG SOLTY                                                                     
%FORMAT(5E16.8)                                                                 
  0.00000000E+00  0.00000000E+00  0.00000000E+00  0.00000000E+00  0.00000000E+00
  0.00000000E+00  0.00000000E+00  0.00000000E+00
%FLAG LENNARD_JONES_ACOEF                                                       
%FORMAT(5E16.8)                                                                 
  9.44293233E+05  8.11497350E+05  6.96551276E+05  8.97750460E+05  7.69642101E+05
  8.49322032E+05  5.99897901E+05  5.17507491E+05  5.74782316E+05  3.76435470E+05
  4.40558796E+05  3.80155513E+05  4.22347898E+05  2.76207447E+05  2.02652992E+05
  1.88178855E+03  1.71458823E+03  2.01475241E+03  9.87857350E+02  7.15600927E+02
  1.34728399E-01  8.64679274E+04  7.52549148E+04  8.43518904E+04  5.27277400E+04
  3.86097375E+04  9.04434904E+01  6.90855956E+03
%FLAG LENNARD_JONES_BCOEF                                                       
%FORMAT(5E16.8)                                                                 
  8.01323529E+02  6.48597119E+02  5.24668528E+02  6.73934129E+02  5.44830041E+02
  5.65406768E+02  6.15165511E+02  4.98871431E+02  5.19385932E+02  4.69350655E+02
  4.57799165E+02  3.71304925E+02  3.86628088E+02  3.49131956E+02  2.59697739E+02
  1.76168249E+01  1.46824710E+01  1.57231024E+01  1.22938581E+01  9.08649254E+00
  7.34107347E-02  1.34516705E+02  1.09570372E+02  1.14599119E+02  1.01173582E+02
  7.51823196E+01  2.14252117E+00  2.10929191E+01
%FLAG BONDS_INC_HYDROGEN                                                        
%FORMAT(10I8)                                                                   
       0      57       2       0      60       2      15      63       8      18
      66       8      27      69       8      30      72       8      36      75
       8      45      78       8      48      81       8
%FLAG BONDS_WITHOUT_HYDROGEN                                                    
%FORMAT(10I8)                                                                   
       0       3       1       3       6       3       3      54       3       6
       9       4       9      12       5       9      33       6      12      15
       6      12      30       6      15      18       7      18      21       7
      21      24       9      21      27       7      27      30       7      33
      36       7      33      51       7      36      39       7      39      42
      10      39      45       7      45      48       7      48      51       7
      51      54       3
%FLAG ANGLES_INC_HYDROGEN                                                       
%FORMAT(10I8)                                                                   
       3       0      57       2       3       0      60       2      12      15
      63      10      12      30      72      10      15      18      66      13
      18      15      63      13      21      18      66      13      21      27
      69      13      27      30      72      13      30      27      69      13
      33      36      75      13      39      36      75      13      39      45
      78      13      45      48      81      13      48      45      78      13
      51      48      81      13      57       0      60      17
%FLAG ANGLES_WITHOUT_HYDROGEN                                                   
%FORMAT(10I8)                                                                   
       0       3       6       1       0       3      54       1       3       6
       9       3       3      54      51       4       6       3      54       5
       6       9      12       6       6       9      33       7       9      12
      15       8       9      12      30       8       9      33      36       9
       9      33      51       9      12       9      33       8      12      15
      18       9      12      30      27       9      15      12      30      11
      15      18      21      12      18      21      24      14      18      21
      27      12      21      27      30      12      24      21      27      14
      33      36      39      12      33      51      48      12      33      51
      54      15      36      33      51      12      36      39      42      16
      36      39      45      12      39      45      48      12      42      39
      45      16      45      48      51      12      48      51      54      15
%FLAG DIHEDRALS_INC_HYDROGEN                                                    
%FORMAT(10I8)                                                                   
      57       0       3       6       2      60       0       3       6       2
       9      12      15      63       4       9      12      30      72       4
       9      33      36      75       4      12      15      18      66       4
      12      30      27      69       4      15      12      30      72       4
      18      21      27      69       4      21      18      15      63       4
      21      27      30      72       4      24      21      18      66       4
      24      21      27      69       4      27      21      18      66       4
      30      12      15      63       4      33      51      48      81       4
      36      39      45      78       4      39      45      48      81       4
      42      39      36      75       4      42      39      45      78       4
      45      39      36      75       4      51      48      45      78       4
      51      33      36      75       4      54      51      48      81       4
      57       0       3      54       2      60       0       3      54       2
      63      15      18      66       4      69      27      30      72       4
      78      45      48      81       4      60       0     -57      -3       6
      18      12     -15     -63       6      15      21     -18     -66       6
      21      30     -27     -69       6      27      12     -30     -72       6
      33      39     -36     -75       6      39      48     -45     -78       6
      45      51     -48     -81       6
%FLAG DIHEDRALS_WITHOUT_HYDROGEN                                                
%FORMAT(10I8)                                                                   
       0       3       6       9       1       0       3      54      51       1
       3       6       9      12       1       3       6       9      33       1
       3      54      51      48       1       3      54     -51      33       1
       6       3      54      51       1       6       9      12      15       3
       6       9      12      30       3       6       9      33      36       4
       6       9     -33      51       4       9       6       3      54       1
       9      12      15      18       4       9      12      30      27       4
       9      33      36      39       4       9      33      51      48       4
       9      33     -51      54       4      12       9      33      36       4
      12       9      33      51       4      12      15      18      21       4
      12      30     -27      21       4      15      12       9      33       5
      15      12      30      27       4      15      18      21      24       4
      15      18     -21      27       4      18      15      12      30       4
      18      21     -27      30       4      24      21      27      30       4
      30      12       9      33       5      33      36      39      42       4
      33      36      39      45       4      33      51     -48      45       4
      36      33      51      48       4      36      33      51      54       4
      36      39     -45      48       4      39      36      33      51       4
      39      45     -48      51       4      42      39      45      48       4
      45      48      51      54       4       0       3     -54      -6       7
      33      12      -9      -6       6      15      30     -12      -9       6
      18      27     -21     -24       6      36      51     -33      -9       6
      36      45     -39     -42       6      33      48     -51     -54       6
%FLAG EXCLUDED_ATOMS_LIST                                                       
%FORMAT(10I8)                                                                   
       2       3       4      18      19      20      21       3       4       5
      12      17      18      19      20      21       4       5       6      11
      12      13      18      19      20      21       5       6       7      10
      11      12      13      14      17      18      19      22      25      26
       6       7       8      10      11      12      13      18      22      23
      24      25       7       8       9      10      11      12      22      23
      25       8       9      10      11      22      23      24       9      10
      11      22      23      24      25      10      11      23      24      11
      23      24      25      12      22      24      25      13      14      15
      16      17      18      19      26      28      14      15      16      17
      18      19      26      27      15      16      17      18      26      27
      28      16      17      26      27      17      18      19      26      27
      28      18      19      27      28      19      26      27      28      20
      21      28      21       0      23       0      25       0       0      28
       0
%FLAG HBOND_ACOEF                                                               
%FORMAT(5E16.8)                                                                 

%FLAG HBOND_BCOEF                                                               
%FORMAT(5E16.8)                                                                 

%FLAG HBCUT                                                                     
%FORMAT(5E16.8)                                                                 

%FLAG AMBER_ATOM_TYPE                                                           
%FORMAT(20a4)                                                                   
nv  ca  nb  cp  cp  ca  ca  ca  o   ca  ca  ca  ca  ca  f   ca  ca  ca  nb  hn  
hn  ha  ha  ha  ha  ha  ha  ha  
%FLAG TREE_CHAIN_CLASSIFICATION                                                 
%FORMAT(20a4)                                                                   
BLA BLA BLA BLA BLA BLA BLA BLA BLA BLA BLA BLA BLA BLA BLA BLA BLA BLA BLA BLA 
BLA BLA BLA BLA BLA BLA BLA BLA 
%FLAG JOIN_ARRAY                                                                
%FORMAT(10I8)                                                                   
       0       0       0       0       0       0       0       0       0       0
       0       0       0       0       0       0       0       0       0       0
       0       0       0       0       0       0       0       0
%FLAG IROTAT                                                                    
%FORMAT(10I8)                                                                   
       0       0       0       0       0       0       0       0       0       0
       0       0       0       0       0       0       0       0       0       0
       0       0       0       0       0       0       0       0
%FLAG RADIUS_SET                                                                
%FORMAT(1a80)                                                                   
modified Bondi radii (mbondi)                                                   
%FLAG RADII                                                                     
%FORMAT(5E16.8)                                                                 
  1.55000000E+00  1.70000000E+00  1.55000000E+00  1.70000000E+00  1.70000000E+00
  1.70000000E+00  1.70000000E+00  1.70000000E+00  1.50000000E+00  1.70000000E+00
  1.70000000E+00  1.70000000E+00  1.70000000E+00  1.70000000E+00  1.50000000E+00
  1.70000000E+00  1.70000000E+00  1.70000000E+00  1.55000000E+00  1.30000000E+00
  1.30000000E+00  1.30000000E+00  1.30000000E+00  1.30000000E+00  1.30000000E+00
  1.30000000E+00  1.30000000E+00  1.30000000E+00
%FLAG SCREEN                                                                    
%FORMAT(5E16.8)                                                                 
  7.90000000E-01  7.20000000E-01  7.90000000E-01  7.20000000E-01  7.20000000E-01
  7.20000000E-01  7.20000000E-01  7.20000000E-01  8.50000000E-01  7.20000000E-01
  7.20000000E-01  7.20000000E-01  7.20000000E-01  7.20000000E-01  8.80000000E-01
  7.20000000E-01  7.20000000E-01  7.20000000E-01  7.90000000E-01  8.50000000E-01
  8.50000000E-01  8.50000000E-01  8.50000000E-01  8.50000000E-01  8.50000000E-01
  8.50000000E-01  8.50000000E-01  8.50000000E-01
%FLAG IPOL                                                                      
%FORMAT(1I8)                                                                    
       0
