C5A
    28
  -2.1940000   3.3630000   0.8670000  -1.7930000   2.1020000   0.4680000
  -0.4910000   1.8470000   0.4880000  -0.1000000   0.6010000   0.1370000
   1.3500000   0.3780000   0.2120000   1.9050000  -0.5050000   1.1450000
   3.2870000  -0.7450000   1.1720000   4.1920000  -0.1250000   0.2950000
   5.4440000  -0.3610000   0.3190000   3.6060000   0.7780000  -0.6090000
   2.2260000   1.0340000  -0.6550000  -1.0090000  -0.3920000  -0.2570000
  -0.6740000  -1.7040000  -0.6820000  -1.6730000  -2.5960000  -1.0420000
  -1.3540000  -3.8330000  -1.4400000  -3.0040000  -2.2170000  -0.9930000
  -3.3290000  -0.9220000  -0.5820000  -2.3540000   0.0000000  -0.2170000
  -2.7450000   1.2220000   0.1550000  -3.1120000   3.3050000   1.2810000
  -1.4540000   3.7630000   1.4290000   1.2760000  -1.0240000   1.8620000
   3.6830000  -1.4460000   1.9070000   4.2570000   1.3020000  -1.3080000
   1.8500000   1.7460000  -1.3830000   0.3630000  -2.0290000  -0.7430000
  -3.7780000  -2.9210000  -1.2760000  -4.3740000  -0.6210000  -0.5510000
