%VERSION  VERSION_STAMP = V0001.000  DATE = 09/14/26  14:42:11                  
%FLAG TITLE                                                                     
%FORMAT(20a4)                                                                   
C7A                                                                             
%FLAG POINTERS                                                                  
%FORMAT(10I8)                                                                   
      34       9      11      26      21      36      42      55       0       0
     163       1      26      36      55      20      38      12      13       0
       0       0       0       0       0       0       0       0      34       0
       0
%FLAG ATOM_NAME                                                                 
%FORMAT(20a4)                                                                   
N   C   N1  C1  C2  C3  C4  C5  C6  N2  C7  C8  N3  C9  N4  N5  C10 C11 C12 C13 
C14 O   N6  H   H1  H2  H3  H4  H5  H6  H7  H8  H9  H10 
%FLAG CHARGE                                                                    
%FORMAT(5E16.8)                                                                 
 -1.71562955E+01  1.65075816E+01 -1.38489480E+01  1.18809396E+01  7.23971979E+00
 -4.12370649E+00 -1.34845020E+00 -4.65215319E+00  9.45372924E+00 -4.67766441E+00
 -3.76472718E+00  5.12411076E+00 -1.19173842E+01  7.27798662E+00 -1.20267180E+01
 -1.37942811E+01  1.25004978E+01  2.92832361E+00 -3.23081379E+00 -5.16237759E+00
  4.82162058E+00 -5.93682534E+00 -1.39218372E+01  8.21461284E+00  8.21461284E+00
  2.95201260E+00  2.69690040E+00  2.76978960E+00  3.62623770E+00  8.40048030E-01
  1.14982713E+00  3.26179170E+00  3.04312410E+00  1.05871563E+00
%FLAG ATOMIC_NUMBER                                                             
%FORMAT(10I8)                                                                   
       7       6       7       6       6       6       6       6       6       7
       6       6       7       6       7       7       6       6       6       6
       6       8       7       1       1       1       1       1       1       1
       1       1       1       1
%FLAG MASS                                                                      
%FORMAT(5E16.8)                                                                 
  1.40100000E+01  1.20100000E+01  1.40100000E+01  1.20100000E+01  1.20100000E+01
  1.20100000E+01  1.20100000E+01  1.20100000E+01  1.20100000E+01  1.40100000E+01
  1.20100000E+01  1.20100000E+01  1.40100000E+01  1.20100000E+01  1.40100000E+01
  1.40100000E+01  1.20100000E+01  1.20100000E+01  1.20100000E+01  1.20100000E+01
  1.20100000E+01  1.60000000E+01  1.40100000E+01  1.00800000E+00  1.00800000E+00
  1.00800000E+00  1.00800000E+00  1.00800000E+00  1.00800000E+00  1.00800000E+00
  1.00800000E+00  1.00800000E+00  1.00800000E+00  1.00800000E+00
%FLAG ATOM_TYPE_INDEX                                                           
%FORMAT(10I8)                                                                   
       1       2       3       2       2       2       2       2       2       4
       2       2       3       2       3       3       2       2       2       2
       2       5       3       6       6       7       7       7       8       8
       9       7       7       8
%FLAG NUMBER_EXCLUDED_ATOMS                                                     
%FORMAT(10I8)                                                                   
       7       9       9      10      10       8       7       8      10       9
       7       5       4       4       3       5       7       8       7       5
       4       4       2       1       1       1       1       1       1       1
       1       1       1       1
%FLAG NONBONDED_PARM_INDEX                                                      
%FORMAT(10I8)                                                                   
       1       2       4       7      11      16      22      29      37       2
       3       5       8      12      17      23      30      38       4       5
       6       9      13      18      24      31      39       7       8       9
      10      14      19      25      32      40      11      12      13      14
      15      20      26      33      41      16      17      18      19      20
      21      27      34      42      22      23      24      25      26      27
      28      35      43      29      30      31      32      33      34      35
      36      44      37      38      39      40      41      42      43      44
      45
%FLAG RESIDUE_LABEL                                                             
%FORMAT(20a4)                                                                   
C7A 
%FLAG RESIDUE_POINTER                                                           
%FORMAT(10I8)                                                                   
       1
%FLAG BOND_FORCE_CONSTANT                                                       
%FORMAT(5E16.8)                                                                 
  4.17900000E+02  4.04600000E+02  3.86490000E+02  3.88520000E+02  2.69370000E+02
  3.46070000E+02  3.54250000E+02  3.60690000E+02  3.29320000E+02  3.35500000E+02
  3.86240000E+02  3.68720000E+02  3.45930000E+02  3.67290000E+02  4.19720000E+02
  3.66970000E+02  2.96500000E+02  3.51190000E+02  3.21490000E+02  3.64600000E+02
%FLAG BOND_EQUIL_VALUE                                                          
%FORMAT(5E16.8)                                                                 
  1.38600000E+00  1.01200000E+00  1.33920000E+00  1.33770000E+00  1.48290000E+00
  1.40560000E+00  1.39860000E+00  1.08600000E+00  1.38580000E+00  1.38030000E+00
  1.37300000E+00  1.08090000E+00  1.37130000E+00  1.08180000E+00  1.31580000E+00
  1.08200000E+00  1.45280000E+00  1.36220000E+00  1.42790000E+00  1.08350000E+00
%FLAG ANGLE_FORCE_CONSTANT                                                      
%FORMAT(5E16.8)                                                                 
  7.27000000E+01  4.84000000E+01  8.29000000E+01  8.31500000E+01  7.27600000E+01
  6.76400000E+01  7.32600000E+01  6.13000000E+01  6.33300000E+01  4.47300000E+01
  6.83800000E+01  6.36700000E+01  4.49000000E+01  6.78200000E+01  6.81700000E+01
  8.04900000E+01  7.15300000E+01  7.28100000E+01  4.79900000E+01  7.69700000E+01
  4.78300000E+01  8.31100000E+01  7.14500000E+01  4.42000000E+01  4.39500000E+01
  8.73500000E+01  4.82000000E+01  4.88600000E+01  6.78700000E+01  6.40000000E+01
  7.85900000E+01  6.45700000E+01  4.52500000E+01  9.54600000E+01  8.26200000E+01
  4.38000000E+01  5.71800000E+01  4.01000000E+01
%FLAG ANGLE_EQUIL_VALUE                                                         
%FORMAT(5E16.8)                                                                 
  2.04098890E+00  2.02580453E+00  2.06106020E+00  2.04622489E+00  2.22180509E+00
  2.03540385E+00  2.19632327E+00  2.11359463E+00  2.10713691E+00  2.09125441E+00
  2.12249581E+00  2.09474507E+00  2.09230160E+00  2.09980652E+00  2.14570870E+00
  2.04762116E+00  2.21831443E+00  1.86313978E+00  2.11202383E+00  1.95494413E+00
  2.12546287E+00  1.92824058E+00  1.94743921E+00  2.22773921E+00  2.25339556E+00
  1.83905422E+00  2.11533996E+00  2.19248355E+00  2.07135764E+00  2.02510640E+00
  2.02283747E+00  2.02824799E+00  2.12406661E+00  1.86383791E+00  1.94656655E+00
  2.12668460E+00  2.01672882E+00  2.00922390E+00
%FLAG DIHEDRAL_FORCE_CONSTANT                                                   
%FORMAT(5E16.8)                                                                 
  4.80000000E+00  1.05000000E+00  1.00000000E+00  3.62500000E+00  6.13000000E-01
  1.70000000E+00  4.00000000E+00  4.75000000E+00  3.00000000E-01  7.00000000E-01
  1.10000000E+00  1.05000000E+01
%FLAG DIHEDRAL_PERIODICITY                                                      
%FORMAT(5E16.8)                                                                 
  2.00000000E+00  2.00000000E+00  2.00000000E+00  2.00000000E+00  2.00000000E+00
  2.00000000E+00  2.00000000E+00  2.00000000E+00  2.00000000E+00  2.00000000E+00
  2.00000000E+00  2.00000000E+00
%FLAG DIHEDRAL_PHASE                                                            
%FORMAT(5E16.8)                                                                 
  3.14159400E+00  3.14159400E+00  3.14159400E+00  3.14159400E+00  3.14159400E+00
  3.14159400E+00  3.14159400E+00  3.14159400E+00  3.14159400E+00  3.14159400E+00
  3.14159400E+00  3.14159400E+00
%FLAG SCEE_SCALE_FACTOR                                                         
%FORMAT(5E16.8)                                                                 
  1.20000000E+00  1.20000000E+00  1.20000000E+00  1.20000000E+00  1.20000000E+00
  1.20000000E+00  1.20000000E+00  1.20000000E+00  1.20000000E+00  1.20000000E+00
  0.00000000E+00  0.00000000E+00
%FLAG SCNB_SCALE_FACTOR                                                         
%FORMAT(5E16.8)                                                                 
  2.00000000E+00  2.00000000E+00  2.00000000E+00  2.00000000E+00  2.00000000E+00
  2.00000000E+00  2.00000000E+00  2.00000000E+00  2.00000000E+00  2.00000000E+00
  0.00000000E+00  0.00000000E+00
%FLAG SOLTY                                                                     
%FORMAT(5E16.8)                                                                 
  0.00000000E+00  0.00000000E+00  0.00000000E+00  0.00000000E+00  0.00000000E+00
  0.00000000E+00  0.00000000E+00  0.00000000E+00  0.00000000E+00  0.00000000E+00
  0.00000000E+00  0.00000000E+00  0.00000000E+00
%FLAG LENNARD_JONES_ACOEF                                                       
%FORMAT(5E16.8)                                                                 
  9.44293233E+05  8.11497350E+05  6.96551276E+05  8.97750460E+05  7.69642101E+05
  8.49322032E+05  9.53586341E+05  8.20152428E+05  9.08092643E+05  9.62429652E+05
  5.18220260E+05  4.46121722E+05  4.94433451E+05  5.22690526E+05  2.83662575E+05
  1.88178855E+03  1.71458823E+03  2.01475241E+03  1.82491629E+03  9.46795083E+02
  1.34728399E-01  8.64679274E+04  7.52549148E+04  8.43518904E+04  8.65595848E+04
  4.65732396E+04  9.04434904E+01  6.90855956E+03  7.19825646E+04  6.27751680E+04
  7.05112106E+04  7.19580450E+04  3.86549715E+04  6.76796831E+01  5.62610481E+03
  4.56536476E+03  5.97535946E+04  5.22195041E+04  5.87815925E+04  5.96470418E+04
  3.19887757E+04  5.02830284E+01  4.56536476E+03  3.69092714E+03  2.97255425E+03
%FLAG LENNARD_JONES_BCOEF                                                       
%FORMAT(5E16.8)                                                                 
  8.01323529E+02  6.48597119E+02  5.24668528E+02  6.73934129E+02  5.44830041E+02
  5.65406768E+02  8.43016687E+02  6.82622272E+02  7.09588248E+02  8.86629877E+02
  4.79881022E+02  3.88758656E+02  4.04310927E+02  5.04545572E+02  2.87011518E+02
  1.76168249E+01  1.46824710E+01  1.57231024E+01  1.81620725E+01  1.01016461E+01
  7.34107347E-02  1.34516705E+02  1.09570372E+02  1.14599119E+02  1.40899023E+02
  7.98066064E+01  2.14252117E+00  2.10929191E+01  1.22733283E+02  1.00073628E+02
  1.04776275E+02  1.28466555E+02  7.27065100E+01  1.85338491E+00  1.90347353E+01
  1.71467049E+01  1.11822890E+02  9.12729468E+01  9.56653235E+01  1.16962018E+02
  6.61407978E+01  1.59752321E+00  1.71467049E+01  1.54173833E+01  1.38359132E+01
%FLAG BONDS_INC_HYDROGEN                                                        
%FORMAT(10I8)                                                                   
       0      69       2       0      72       2      15      75       8      18
      78       8      21      81       8      30      84      12      33      87
      14      39      90      16      54      93      20      57      96      20
      60      99      12
%FLAG BONDS_WITHOUT_HYDROGEN                                                    
%FORMAT(10I8)                                                                   
       0       3       1       3       6       3       3      66       3       6
       9       4       9      12       5       9      45       4      12      15
       6      12      42       4      15      18       7      18      21       7
      21      24       7      24      27       9      24      42       3      27
      30      10      27      39      10      30      33      11      33      36
      13      36      39      15      45      48       3      48      51      17
      48      66       3      51      54      11      51      63      18      54
      57      19      57      60      11      60      63      18
%FLAG ANGLES_INC_HYDROGEN                                                       
%FORMAT(10I8)                                                                   
       3       0      69       2       3       0      72       2      12      15
      75      10      15      18      78      13      18      15      75      13
      18      21      81      13      21      18      78      13      24      21
      81      13      27      30      84      19      27      39      90      21
      30      33      87      24      33      30      84      25      36      33
      87      27      36      39      90      28      51      54      93      33
      54      57      96      36      57      54      93      36      57      60
      99      25      60      57      96      33      63      60      99      37
      69       0      72      38
%FLAG ANGLES_WITHOUT_HYDROGEN                                                   
%FORMAT(10I8)                                                                   
       0       3       6       1       0       3      66       1       3       6
       9       3       3      66      48       4       6       3      66       5
       6       9      12       6       6       9      45       7       9      12
      15       8       9      12      42       6       9      45      48       3
      12       9      45       6      12      15      18       9      12      42
      24       3      15      12      42      11      15      18      21      12
      18      21      24      12      21      24      27      14      21      24
      42      15      24      27      30      16      24      27      39      16
      27      24      42      17      27      30      33      18      27      39
      36      20      30      27      39      22      30      33      36      23
      33      36      39      26      45      48      51      29      45      48
      66       5      48      51      54      30      48      51      63      31
      51      48      66      29      51      54      57      32      51      63
      60      34      54      51      63      35      54      57      60      32
      57      60      63      35
%FLAG DIHEDRALS_INC_HYDROGEN                                                    
%FORMAT(10I8)                                                                   
      69       0       3       6       2      72       0       3       6       2
       9      12      15      75       4      12      15      18      78       4
      15      18      21      81       4      21      18      15      75       4
      24      21      18      78       4      24      27      30      84       6
      24      27      39      90       6      27      24      21      81       4
      27      30      33      87       7      30      27      39      90       6
      33      36      39      90       8      36      33      30      84       7
      39      36      33      87       8      39      27      30      84       6
      42      24      21      81       4      42      12      15      75       4
      48      51      54      93       7      51      54      57      96       7
      51      63      60      99       2      54      57      60      99       7
      60      57      54      93       7      63      60      57      96       7
      63      51      54      93       7      69       0       3      66       2
      72       0       3      66       2      75      15      18      78       4
      78      18      21      81       4      84      30      33      87       7
      93      54      57      96       7      96      57      60      99       7
      72       0     -69      -3      11      18      12     -15     -75      11
      15      21     -18     -78      11      18      24     -21     -81      11
      33      84     -30     -27      11      30      87     -33     -36      11
      90      27     -39     -36      11      51      57     -54     -93      11
      60      54     -57     -96      11      57      99     -60     -63      11
%FLAG DIHEDRALS_WITHOUT_HYDROGEN                                                
%FORMAT(10I8)                                                                   
       0       3       6       9       1       0       3      66      48       1
       3       6       9      12       1       3       6       9      45       1
       3      66     -48      45       1       3      66      48      51       1
       6       3      66      48       1       6       9      12      15       3
       6       9      12      42       3       6       9     -45      48       1
       9       6       3      66       1       9      12      15      18       4
       9      12      42      24       1       9      45      48      51       1
       9      45     -48      66       1      12       9      45      48       1
      12      15      18      21       4      12      42     -24      21       1
      12      42      24      27       1      15      12       9      45       3
      15      12      42      24       1      15      18     -21      24       4
      18      15      12      42       4      18      21      24      27       4
      18      21     -24      42       4      21      24      27      30       5
      21      24      27      39       5      24      27      30      33       6
      24      27      39      36       6      27      30     -33      36       7
      27      39     -36      33       8      30      27      24      42       9
      30      27     -39      36       6      30      33     -36      39       8
      33      30     -27      39       6      39      27      24      42       9
      42      12       9      45       3      45      48      51      54      10
      45      48      51      63      10      48      51      54      57       7
      48      51      63      60       2      51      54     -57      60       7
      51      63     -60      57       2      54      51      48      66      10
      54      51     -63      60       2      54      57     -60      63       7
      57      54     -51      63       7      63      51      48      66      10
       0       3     -66      -6      12      12       6      -9     -45      11
      15       9     -12     -42      11      21      27     -24     -42      11
      24      30     -27     -39      11      51      45     -48     -66      11
      48      54     -51     -63      11
%FLAG EXCLUDED_ATOMS_LIST                                                       
%FORMAT(10I8)                                                                   
       2       3       4      17      23      24      25       3       4       5
      16      17      18      23      24      25       4       5       6      15
      16      17      23      24      25       5       6       7       9      15
      16      17      18      23      26       6       7       8       9      10
      15      16      17      26      27       7       8       9      15      16
      26      27      28       8       9      10      15      26      27      28
       9      10      11      14      15      26      27      28      10      11
      12      13      14      15      27      28      29      31      11      12
      13      14      15      28      29      30      31      12      13      14
      15      29      30      31      13      14      29      30      31      14
      29      30      31      15      29      30      31      16      26      28
      17      18      19      22      23      18      19      20      21      22
      23      32      19      20      21      22      23      32      33      34
      20      21      22      23      32      33      34      21      22      32
      33      34      22      32      33      34      23      32      33      34
      24      25      25       0      27      28       0      30       0       0
      33      34       0
%FLAG HBOND_ACOEF                                                               
%FORMAT(5E16.8)                                                                 

%FLAG HBOND_BCOEF                                                               
%FORMAT(5E16.8)                                                                 

%FLAG HBCUT                                                                     
%FORMAT(5E16.8)                                                                 

%FLAG AMBER_ATOM_TYPE                                                           
%FORMAT(20a4)                                                                   
nv  ca  nb  cp  cp  ca  ca  ca  ca  na  cc  cd  nd  cc  nb  nb  ca  cc  cd  cd  
cc  os  nb  hn  hn  ha  ha  ha  h4  h4  h5  ha  ha  h4  
%FLAG TREE_CHAIN_CLASSIFICATION                                                 
%FORMAT(20a4)                                                                   
BLA BLA BLA BLA BLA BLA BLA BLA BLA BLA BLA BLA BLA BLA BLA BLA BLA BLA BLA BLA 
BLA BLA BLA BLA BLA BLA BLA BLA BLA BLA BLA BLA BLA BLA 
%FLAG JOIN_ARRAY                                                                
%FORMAT(10I8)                                                                   
       0       0       0       0       0       0       0       0       0       0
       0       0       0       0       0       0       0       0       0       0
       0       0       0       0       0       0       0       0       0       0
       0       0       0       0
%FLAG IROTAT                                                                    
%FORMAT(10I8)                                                                   
       0       0       0       0       0       0       0       0       0       0
       0       0       0       0       0       0       0       0       0       0
       0       0       0       0       0       0       0       0       0       0
       0       0       0       0
%FLAG RADIUS_SET                                                                
%FORMAT(1a80)                                                                   
modified Bondi radii (mbondi)                                                   
%FLAG RADII                                                                     
%FORMAT(5E16.8)                                                                 
  1.55000000E+00  1.70000000E+00  1.55000000E+00  1.70000000E+00  1.70000000E+00
  1.70000000E+00  1.70000000E+00  1.70000000E+00  1.70000000E+00  1.55000000E+00
  1.70000000E+00  1.70000000E+00  1.55000000E+00  1.70000000E+00  1.55000000E+00
  1.55000000E+00  1.70000000E+00  1.70000000E+00  1.70000000E+00  1.70000000E+00
  1.70000000E+00  1.50000000E+00  1.55000000E+00  1.30000000E+00  1.30000000E+00
  1.30000000E+00  1.30000000E+00  1.30000000E+00  1.30000000E+00  1.30000000E+00
  1.30000000E+00  1.30000000E+00  1.30000000E+00  1.30000000E+00
%FLAG SCREEN                                                                    
%FORMAT(5E16.8)                                                                 
  7.90000000E-01  7.20000000E-01  7.90000000E-01  7.20000000E-01  7.20000000E-01
  7.20000000E-01  7.20000000E-01  7.20000000E-01  7.20000000E-01  7.90000000E-01
  7.20000000E-01  7.20000000E-01  7.90000000E-01  7.20000000E-01  7.90000000E-01
  7.90000000E-01  7.20000000E-01  7.20000000E-01  7.20000000E-01  7.20000000E-01
  7.20000000E-01  8.50000000E-01  7.90000000E-01  8.50000000E-01  8.50000000E-01
  8.50000000E-01  8.50000000E-01  8.50000000E-01  8.50000000E-01  8.50000000E-01
  8.50000000E-01  8.50000000E-01  8.50000000E-01  8.50000000E-01
%FLAG IPOL                                                                      
%FORMAT(1I8)                                                                    
       0
