C7A
    34
   1.7480000   0.7230000  -3.3970000   1.7380000   0.4160000  -2.0520000
   0.5610000   0.2640000  -1.4720000   0.5870000  -0.0340000  -0.1690000
  -0.7110000  -0.2080000   0.5340000  -0.7840000  -0.4690000   1.9030000
  -2.0280000  -0.6250000   2.5080000  -3.1850000  -0.5170000   1.7420000
  -3.0550000  -0.2560000   0.3830000  -4.2050000  -0.1360000  -0.4460000
  -4.1940000   0.1260000  -1.8000000  -5.5100000   0.1550000  -2.1930000
  -6.3370000  -0.0810000  -1.1290000  -5.5320000  -0.2500000  -0.1010000
  -1.8450000  -0.1050000  -0.2150000   1.7040000  -0.1930000   0.5440000
   2.8250000  -0.0320000  -0.1590000   4.0700000  -0.2100000   0.5750000
   4.3680000  -0.4980000   1.8950000   5.7790000  -0.5440000   1.9970000
   6.2610000  -0.2830000   0.7370000   5.2370000  -0.0810000  -0.1310000
   2.9020000   0.2630000  -1.4530000   0.8850000   0.4310000  -3.8340000
   2.6150000   0.4270000  -3.8240000   0.1190000  -0.5520000   2.5020000
  -2.0940000  -0.8280000   3.5750000  -4.1440000  -0.6400000   2.2320000
  -3.2700000   0.2660000  -2.3450000  -5.9030000   0.3340000  -3.1850000
  -5.8710000  -0.4560000   0.9040000   3.6440000  -0.6540000   2.6830000
   6.3730000  -0.7430000   2.8790000   7.2530000  -0.2090000   0.3130000
