default_name
  8234
 -26.2300000  -6.6870000  27.2570000 -25.2440252  -6.9054325  27.2414484
 -26.5050000  -6.7750000  28.2250000 -26.1740000  -5.6980000  27.0580000
 -26.9220000  -7.5910000  26.2850000 -26.2290000  -8.4300000  26.2220000
 -28.2580000  -8.1530000  26.8370000 -28.0620000  -8.7110000  27.7530000
 -29.0360000  -7.3990000  26.9610000 -28.7820000  -9.1600000  26.0050000
 -28.1970000  -9.9220000  26.0040000 -27.1660000  -6.9000000  24.9270000
 -27.6200000  -5.7490000  24.8900000 -26.8530000  -7.5920000  23.8220000
 -26.1560000  -8.3160000  23.9240000 -27.0250000  -7.0880000  22.4480000
 -26.3670000  -6.2280000  22.3200000 -26.5960000  -8.1560000  21.3950000
 -26.9400000  -9.1850000  21.5040000 -26.8600000  -7.8690000  20.3770000
 -25.2100000  -8.3380000  21.4110000 -24.7590000  -7.5240000  21.1770000
 -28.4530000  -6.6610000  22.1360000 -28.6680000  -5.6650000  21.4410000
 -29.4180000  -7.4530000  22.6200000 -29.1560000  -8.3740000  22.9420000
 -30.8420000  -7.1950000  22.4030000 -31.0090000  -7.2050000  21.3260000
 -31.7500000  -8.3300000  22.9630000 -31.6050000  -8.6790000  23.9860000
 -33.2380000  -7.9210000  22.9750000 -33.8770000  -8.7700000  22.7320000
 -33.5290000  -7.2420000  22.1740000 -33.6280000  -7.6630000  23.9590000
 -31.5340000  -9.6200000  22.1330000 -32.4530000 -10.1970000  22.0280000
 -31.1640000  -9.5590000  21.1100000 -30.8760000 -10.3390000  22.6200000
 -31.2140000  -5.8410000  23.0060000 -31.8750000  -5.0290000  22.3620000
 -30.7890000  -5.6080000  24.2540000 -30.5800000  -6.4160000  24.8230000
 -31.0600000  -4.3410000  24.9100000 -32.1500000  -4.3260000  24.9330000
 -30.5380000  -4.3200000  26.3620000 -29.5490000  -4.7100000  26.6020000
 -31.2190000  -5.0220000  26.8430000 -30.5110000  -2.9360000  26.9760000
 -31.7020000  -2.2690000  27.2730000 -32.6200000  -2.7120000  26.9160000
 -31.6780000  -0.9990000  27.8810000 -32.5750000  -0.4660000  28.1600000
 -30.4490000  -0.3630000  28.1200000 -30.4120000   0.8650000  28.6910000
 -30.2810000   0.8040000  29.6400000 -29.2630000  -1.0110000  27.7570000
 -28.3590000  -0.4520000  27.5680000 -29.2920000  -2.2950000  27.2540000
 -28.3650000  -2.8230000  27.4230000 -30.4870000  -3.1630000  24.1150000
 -31.2060000  -2.2220000  23.7780000 -29.1860000  -3.2530000  23.8050000
 -28.6390000  -3.9060000  24.3470000 -28.4790000  -2.1840000  23.1030000
 -28.5380000  -1.3250000  23.7720000 -26.9990000  -2.5740000  22.8220000
 -26.8630000  -3.5030000  22.2690000 -26.2910000  -1.5440000  21.8920000
 -26.2180000  -0.4930000  22.1740000 -25.2340000  -1.7960000  21.8020000
 -26.5580000  -1.7540000  20.8560000 -26.1850000  -2.7610000  24.1250000
 -25.2520000  -3.1820000  23.7490000 -26.4250000  -3.4740000  24.9140000
 -25.8370000  -1.5040000  24.8600000 -25.3040000  -0.8440000  24.1760000
 -26.5890000  -1.1800000  25.5800000 -25.0370000  -1.8440000  25.5180000
 -29.1840000  -1.8070000  21.7970000 -29.4070000  -0.6200000  21.5270000
 -29.5300000  -2.8200000  20.9730000 -29.3040000  -3.7890000  21.1460000
 -30.0280000  -2.5680000  19.6440000 -29.2800000  -1.8920000  19.2290000
 -29.9200000  -3.7720000  18.7020000 -28.9180000  -4.1590000  18.5180000
 -30.8270000  -4.9670000  19.0780000 -30.1530000  -5.8130000  19.2170000
 -31.6910000  -5.0990000  19.7290000 -31.3150000  -5.1170000  18.1150000
 -30.2330000  -3.3710000  17.3700000 -29.7300000  -2.5960000  17.1090000
 -31.4820000  -2.0610000  19.6720000 -31.8310000  -1.1580000  18.9110000
 -32.3230000  -2.6390000  20.5540000 -31.9330000  -3.2270000  21.2760000
 -33.7140000  -2.1980000  20.7240000 -34.2290000  -2.3100000  19.7700000
 -34.4890000  -3.0750000  21.7400000 -34.0460000  -3.2090000  22.7270000
 -35.8290000  -2.4570000  22.1170000 -36.6370000  -2.7250000  21.4360000
 -35.8550000  -1.3720000  22.0190000 -36.1350000  -2.9740000  23.0270000
 -34.7440000  -4.4950000  21.1800000 -34.6000000  -5.1800000  22.0160000
 -35.7890000  -4.6820000  20.9320000 -34.3040000  -4.8260000  20.2390000
 -33.6900000  -0.7310000  21.1740000 -34.4470000   0.1090000  20.6740000
 -32.8170000  -0.4460000  22.1410000 -32.5040000  -1.2220000  22.7080000
 -32.6260000   0.9020000  22.6560000 -33.6070000   1.2200000  23.0100000
 -31.5880000   0.8930000  23.8170000 -30.5630000   0.7010000  23.4980000
 -31.8790000   0.1320000  24.5410000 -31.6160000   2.1160000  24.6680000
 -31.3510000   2.7710000  23.8390000 -30.8500000   2.4960000  25.3450000
 -32.6290000   1.9890000  25.8210000 -33.8280000   1.7480000  25.5800000
 -32.1790000   2.0730000  26.9910000 -32.1810000   1.8670000  21.5580000
 -32.6840000   2.9960000  21.4910000 -31.2300000   1.4550000  20.6910000
 -30.5380000   0.7590000  20.9270000 -30.8040000   2.2590000  19.5690000
 -30.5540000   3.2530000  19.9390000 -29.5480000   1.6500000  18.9050000
 -29.4300000   2.1490000  17.9430000 -29.6120000   0.6220000  18.5470000
 -28.2600000   1.9660000  19.6870000 -28.3880000   2.0910000  20.7630000
 -27.1810000   0.8910000  19.3920000 -26.3350000   1.3030000  18.8410000
 -27.4070000   0.0690000  18.7120000 -26.6810000   0.6430000  20.3280000
 -27.7230000   3.3710000  19.3330000 -27.5050000   3.4290000  18.2670000
 -26.7490000   3.5330000  19.7960000 -28.3050000   4.2680000  19.5420000
 -31.8910000   2.4840000  18.5260000 -31.9580000   3.5790000  17.9650000
 -32.7150000   1.4740000  18.2230000 -32.1930000   0.7280000  17.7860000
 -33.8590000   1.6010000  17.3510000 -33.4650000   1.8090000  16.3560000
 -34.6540000   0.2670000  17.2520000 -34.3910000  -0.1240000  16.2690000
 -35.7420000   0.3300000  17.2480000 -34.3600000  -0.6070000  17.8320000
 -34.7700000   2.7270000  17.7890000 -35.0940000   3.6130000  16.9980000
 -35.1420000   2.6900000  19.0700000 -34.7050000   1.9910000  19.6540000
 -36.0250000   3.6870000  19.6670000 -36.9510000   3.5870000  19.1020000
 -36.3440000   3.3580000  21.1410000 -35.4590000   3.1430000  21.7390000
 -37.0140000   4.5350000  21.8910000 -36.2580000   5.2470000  22.2230000
 -37.4680000   4.1490000  22.8040000 -37.7370000   5.1780000  21.3880000
 -37.2660000   2.1330000  21.1750000 -37.0910000   1.4070000  20.3810000
 -38.2930000   2.4250000  20.9530000 -37.1860000   1.3530000  22.4690000
 -38.2470000   1.2500000  22.6970000 -36.5140000   1.6910000  23.2590000
 -37.0010000   0.3350000  22.1280000 -35.4190000   5.0920000  19.5460000
 -36.1320000   6.0310000  19.2050000 -34.1050000   5.2440000  19.8070000
 -33.5220000   4.4830000  20.1230000 -33.4380000   6.5180000  19.6430000
 -33.9440000   7.2160000  20.3100000 -31.9350000   6.4020000  19.9890000
 -31.3040000   5.5660000  19.6870000 -31.4850000   7.1870000  19.3810000
 -31.7380000   6.7570000  21.0010000 -33.5890000   7.0850000  18.2250000
 -33.8780000   8.2740000  18.0560000 -33.3910000   6.2450000  17.2030000
 -32.6540000   5.5660000  17.3320000 -33.5830000   6.6340000  15.8040000
 -32.9390000   7.4780000  15.5550000 -33.1100000   5.5140000  14.8490000
 -33.4930000   4.5030000  14.9920000 -33.5100000   5.8280000  13.3800000
 -32.7100000   6.2730000  12.7880000 -33.7230000   4.8980000  12.8510000
 -34.3810000   6.4650000  13.2220000 -31.5720000   5.3530000  14.9300000
 -31.0680000   6.2120000  14.4880000 -30.9650000   5.1060000  15.8010000
 -31.3600000   4.5120000  14.2690000 -35.0280000   7.0580000  15.5440000
 -35.2750000   8.1770000  15.0840000 -35.9800000   6.1670000  15.8540000
 -35.7030000   5.2310000  16.1150000 -37.4150000   6.4450000  15.7230000
 -37.6710000   6.5740000  14.6710000 -38.2370000   5.2560000  16.2220000
 -39.2620000   5.6220000  16.1660000 -37.8590000   4.9840000  17.2070000
 -38.1570000   3.9460000  15.4290000 -37.2010000   3.7620000  14.9390000
 -38.4860000   2.7230000  16.3620000 -37.6940000   1.9850000  16.2400000
 -39.3810000   2.2290000  15.9830000 -38.7970000   2.7600000  17.4060000
 -39.1080000   3.9050000  14.2140000 -38.9680000   4.3790000  13.2420000
 -40.0920000   4.2980000  14.4660000 -39.1400000   2.8560000  13.9170000
 -37.8440000   7.7080000  16.4990000 -38.7340000   8.4390000  16.0530000
 -37.2070000   7.9780000  17.6460000 -36.2790000   7.6040000  17.7800000
 -37.5080000   9.1390000  18.4380000 -38.5960000   9.1700000  18.4960000
 -36.8500000   9.0730000  19.8370000 -36.7750000   8.1220000  20.3630000
 -35.8990000   9.5980000  19.9230000 -37.5650000   9.6440000  20.4300000
 -37.0300000  10.3980000  17.7270000 -37.7500000  11.3880000  17.6830000
 -35.8130000  10.3800000  17.1610000 -35.0960000   9.7540000  17.4980000
 -35.3150000  11.5110000  16.3870000 -35.4480000  12.4080000  16.9910000
 -33.8000000  11.3610000  16.0700000 -33.5520000  10.4880000  15.4660000
 -33.3020000  12.4730000  15.1040000 -33.8350000  12.4470000  14.1540000
 -33.1310000  13.4990000  15.4320000 -32.3010000  12.2100000  14.7640000
 -32.9650000  11.4150000  17.3860000 -32.9070000  12.4910000  17.5520000
 -33.3500000  11.0060000  18.3200000 -31.5800000  10.7440000  17.2390000
 -30.8860000  11.2720000  16.5860000 -31.6760000   9.7800000  16.7390000
 -31.0310000  10.4680000  18.1390000 -36.1530000  11.7270000  15.1230000
 -36.5360000  12.8650000  14.8500000 -36.4470000  10.6740000  14.3370000
 -35.7820000   9.9180000  14.2590000 -37.2140000  10.8190000  13.1130000
 -36.6900000  11.5650000  12.5160000 -37.3290000   9.4760000  12.3540000
 -38.0920000   9.6320000  11.5910000 -37.7470000   8.6550000  12.9350000
 -36.0440000   9.0570000  11.5950000 -35.0790000   9.0190000  12.1010000
 -36.2420000   7.6180000  11.0460000 -37.2190000   7.5070000  10.5760000
 -36.1810000   6.7120000  11.6490000 -35.5050000   7.4300000  10.2650000
 -35.7160000  10.0520000  10.4490000 -35.8690000   9.5400000   9.4990000
 -36.2710000  10.9750000  10.2780000 -34.6730000  10.3660000  10.4630000
 -38.6060000  11.3910000  13.3110000 -38.9420000  12.3930000  12.6730000
 -39.4290000  10.7780000  14.1860000 -39.2770000   9.8530000  14.5620000
 -40.7770000  11.2390000  14.4350000 -41.3010000  10.6140000  15.1590000
 -41.3300000  11.0420000  13.5170000 -40.8710000  12.6660000  14.9700000
 -41.7840000  13.4030000  14.6160000 -39.9250000  13.0420000  15.8380000
 -39.2270000  12.3520000  16.0770000 -39.9620000  14.3410000  16.5160000
 -41.0060000  14.5450000  16.7560000 -39.2300000  14.3020000  17.8530000
 -39.2690000  15.3330000  18.2050000 -38.2400000  13.8580000  17.7490000
 -40.0140000  13.5740000  18.9190000 -40.9730000  14.1220000  19.4520000
 -39.5840000  12.3800000  19.2930000 -38.6600000  12.3490000  19.6980000
 -39.9990000  11.4850000  19.0750000 -39.3690000  15.4770000  15.6770000
 -39.8270000  16.6120000  15.7700000 -38.3110000  15.2000000  14.9140000
 -37.5830000  14.7180000  15.4230000 -37.8430000  16.1140000  13.8660000
 -37.5840000  17.0830000  14.2930000 -36.5590000  15.6030000  13.1590000
 -36.5610000  14.5860000  12.7670000 -36.2730000  16.4000000  11.8590000
 -36.8420000  16.0280000  11.0070000 -35.2450000  16.2690000  11.5190000
 -36.3560000  17.4830000  11.9390000 -35.3480000  15.7160000  14.1130000
 -35.2480000  15.1410000  15.0340000 -35.1420000  16.7630000  14.3340000
 -34.4900000  15.4220000  13.5100000 -38.9720000  16.3500000  12.8800000
 -39.2280000  17.4910000  12.5210000 -39.6710000  15.2830000  12.4750000
 -39.3460000  14.3650000  12.7430000 -40.7920000  15.4230000  11.5540000
 -40.2980000  15.8380000  10.6750000 -41.4050000  14.0500000  11.1820000
 -41.9810000  13.6330000  12.0080000 -40.6230000  13.3460000  10.9000000
 -42.3770000  14.0430000  10.0170000 -43.1000000  14.8460000  10.1590000
 -41.6460000  14.2830000   8.6870000 -40.8170000  13.5990000   8.5070000
 -41.2330000  15.2800000   8.5380000 -42.4080000  14.0990000   7.9290000
 -43.1260000  12.6760000   9.9620000 -42.9690000  12.0090000  10.8100000
 -44.2110000  12.7710000   9.9190000 -42.7940000  12.0770000   9.1140000
 -41.8820000  16.3580000  12.1270000 -42.4140000  17.2020000  11.4040000
 -42.1910000  16.2290000  13.4320000 -41.6530000  15.5900000  14.0000000
 -43.1440000  17.1230000  14.1170000 -44.1010000  17.0980000  13.5950000
 -43.4150000  16.6720000  15.5730000 -42.5370000  16.4680000  16.1860000
 -44.1070000  17.7550000  16.4220000 -45.1770000  17.7310000  16.2120000
 -43.9570000  17.5010000  17.4720000 -43.7830000  18.7920000  16.3350000
 -44.2610000  15.3700000  15.5890000 -43.6540000  14.4970000  15.3500000
 -45.1150000  15.1970000  14.9340000 -44.5970000  15.2790000  16.6220000
 -42.6400000  18.5720000  14.0820000 -43.4000000  19.4830000  13.7500000
 -41.3780000  18.8150000  14.4790000 -41.1030000  18.3840000  15.3490000
 -40.7500000  20.1240000  14.4850000 -41.3040000  20.8050000  15.1310000
 -39.3180000  20.0740000  15.1400000 -38.4280000  19.5910000  14.7350000
 -39.0860000  21.1320000  15.2550000 -39.3170000  19.7550000  16.9130000
 -38.6000000  20.3740000  17.8550000 -40.6780000  20.7560000  13.1010000
 -40.9860000  21.9340000  12.9320000 -40.2040000  19.9960000  12.1200000
 -39.2560000  19.7500000  12.3670000 -40.1100000  20.4000000  10.7420000
 -39.4060000  21.2310000  10.7690000 -39.5120000  19.2670000   9.8800000
 -38.6740000  18.7780000  10.3770000 -40.3040000  18.6170000   9.5080000
 -38.6300000  19.7090000   8.7840000 -37.6920000  20.7180000   8.7670000
 -37.2280000  21.3450000   9.5140000 -37.0590000  20.7560000   7.5680000
 -36.2680000  21.3440000   7.3450000 -37.4810000  19.7370000   6.7790000
 -37.0860000  19.3590000   5.5060000 -36.3040000  19.8590000   4.9530000
 -37.6860000  18.2600000   4.9360000 -37.2800000  17.9330000   3.9900000
 -38.6300000  17.5160000   5.6250000 -38.5660000  16.5030000   5.2540000
 -39.0100000  17.8610000   6.9320000 -38.9970000  16.9920000   7.5730000
 -38.4770000  19.0290000   7.5170000 -41.4600000  20.8440000  10.1900000
 -41.5500000  21.8640000   9.5110000 -42.5180000  20.1000000  10.5210000
 -42.3310000  19.2400000  11.0160000 -43.8770000  20.4660000  10.1150000
 -43.7900000  20.6150000   9.0390000 -44.8740000  19.3570000  10.5510000
 -44.6980000  19.0110000  11.5690000 -44.7690000  18.4880000   9.9010000
 -45.9230000  19.6540000  10.5380000 -44.3490000  21.8210000  10.6490000
 -45.0900000  22.5200000   9.9570000 -43.9420000  22.2040000  11.8640000
 -43.4970000  21.5250000  12.4640000 -44.2660000  23.5320000  12.4310000
 -45.2740000  23.8420000  12.1560000 -44.0420000  23.5320000  13.9840000
 -43.0150000  23.3420000  14.2980000 -44.2390000  24.9380000  14.5800000
 -45.0980000  25.4600000  14.1580000 -44.3860000  25.0580000  15.6530000
 -43.3310000  25.5030000  14.3730000 -44.9670000  22.5010000  14.6550000
 -44.3670000  21.6780000  15.0440000 -45.7480000  22.1060000  14.0060000
 -45.4500000  22.9450000  15.5250000 -43.4920000  24.6580000  11.7580000
 -44.0100000  25.7660000  11.6140000 -42.2340000  24.4130000  11.3850000
 -41.6860000  24.0270000  12.1390000 -41.3820000  25.3530000  10.6720000
 -41.2800000  26.2850000  11.2280000 -39.9730000  24.7330000  10.5320000
 -39.3920000  24.4860000  11.4200000 -40.0820000  23.7440000  10.0870000
 -38.9480000  25.5940000   9.9020000 -38.6660000  25.8310000   8.5810000
 -39.0850000  25.5450000   7.6280000 -37.5860000  26.6440000   8.4620000
 -37.1740000  26.9370000   7.5870000 -37.0950000  26.9680000   9.6850000
 -36.0150000  27.7670000  10.0380000 -35.4000000  28.2590000   9.2990000
 -35.7410000  27.9240000  11.3920000 -34.8930000  28.5240000  11.6890000
 -36.5240000  27.3020000  12.3670000 -36.2480000  27.4360000  13.4020000
 -37.6240000  26.5190000  12.0280000 -38.2120000  26.2050000  12.8770000
 -37.9320000  26.3200000  10.6500000 -41.9350000  25.6890000   9.2840000
 -41.9960000  26.8660000   8.9080000 -42.3250000  24.6560000   8.5170000
 -42.0330000  23.7170000   8.7500000 -42.8750000  24.8370000   7.1870000
 -42.3240000  25.6260000   6.6740000 -42.8490000  23.4940000   6.4210000
 -43.6610000  22.8190000   6.6890000 -43.1300000  23.7830000   5.4080000
 -41.4410000  22.8240000   6.2470000 -40.6860000  22.8060000   7.0330000
 -41.6010000  21.3540000   5.8610000 -41.4800000  21.2750000   4.7810000
 -40.7880000  20.7820000   6.3100000 -42.5880000  20.9170000   6.0080000
 -40.6050000  23.6050000   5.2050000 -40.2120000  22.9750000   4.4070000
 -39.7040000  24.1020000   5.5650000 -41.1250000  24.3800000   4.6430000
 -44.2860000  25.4040000   7.2160000 -44.5210000  26.4970000   6.6990000
 -45.2100000  24.7010000   7.8690000 -44.8490000  24.4010000   8.7640000
 -46.6180000  25.0680000   7.8760000 -46.8320000  25.2020000   6.8160000
 -47.4930000  23.9260000   8.3730000 -47.3440000  23.8830000   9.4510000
 -47.2150000  23.1410000   7.6690000 -48.9670000  24.0790000   8.0770000
 -49.4490000  25.1590000   7.7760000 -49.6990000  23.0000000   8.0720000
 -50.1130000  22.8410000   7.1650000 -49.9920000  22.5300000   8.9160000
 -46.8570000  26.3220000   8.7410000 -46.4640000  26.3670000   9.9150000
 -47.5060000  27.3290000   8.1440000 -47.5980000  27.3100000   7.1380000
 -47.8210000  28.6120000   8.7770000 -46.9080000  29.0110000   9.2210000
 -48.1920000  29.6570000   7.6930000 -47.3570000  29.7700000   7.0020000
 -49.0750000  29.5200000   7.0690000 -48.4850000  30.8960000   8.2810000
 -47.8930000  31.5650000   7.9290000 -48.9490000  28.5200000   9.8140000
 -48.9690000  29.2540000  10.8040000 -49.9020000  27.6260000   9.5600000
 -49.9870000  27.4430000   8.5700000 -51.0600000  27.4150000  10.4500000
 -51.5250000  28.3690000  10.7010000 -52.1550000  26.5820000   9.7620000
 -51.8730000  25.6360000   9.3000000 -52.9190000  26.4600000  10.5290000
 -52.6990000  27.2560000   8.5330000 -51.9470000  27.7780000   7.7070000
 -54.0070000  27.1920000   8.3300000 -54.7070000  27.5890000   8.9410000
 -54.3250000  27.0530000   7.3810000 -50.6780000  26.7650000  11.7820000
 -51.3570000  26.9820000  12.7890000 -49.5880000  25.9870000  11.7850000
 -48.9770000  26.0140000  10.9810000 -49.1070000  25.3380000  13.0050000
 -49.9550000  25.1310000  13.6580000 -48.2770000  24.0990000  12.6450000
 -47.8980000  23.6840000  13.5790000 -47.4510000  24.5410000  12.0880000
 -49.0200000  23.0160000  11.8200000 -49.4980000  23.5140000  10.9760000
 -48.0420000  21.8670000  11.4500000 -47.8660000  21.8230000  10.3750000
 -48.4100000  20.8940000  11.7780000 -47.0660000  21.9850000  11.9210000
 -50.2250000  22.4370000  12.5710000 -50.5590000  21.4670000  12.2030000
 -49.9750000  22.3240000  13.6260000 -51.0740000  23.1170000  12.6370000
 -48.2750000  26.2690000  13.8860000 -47.9560000  25.8960000  15.0210000
 -47.9310000  27.4820000  13.4060000 -48.4430000  27.9560000  12.6760000
 -47.0920000  28.4320000  14.1260000 -46.3030000  27.9860000  14.7310000
 -46.3180000  29.2720000  13.1130000 -46.9450000  29.9780000  12.5680000
 -45.9020000  28.6110000  12.3530000 -45.2850000  30.2860000  13.7210000
 -44.7940000  30.1090000  14.6780000 -45.7910000  31.2390000  13.8760000
 -44.3990000  30.9520000  12.7320000 -43.5160000  31.1880000  11.9200000
 -43.8330000  29.7220000  12.6610000 -43.7860000  28.8990000  13.2440000
 -43.0140000  29.5700000  12.0900000 -47.9450000  29.3100000  15.0400000
 -48.1660000  30.4910000  14.7640000 -48.3770000  28.7610000  16.1650000
 -47.8040000  28.0090000  16.5200000 -49.2140000  29.4800000  17.1360000
 -48.9560000  30.5380000  17.0890000 -50.7140000  29.2830000  16.8090000
 -50.8940000  29.6430000  15.7960000 -51.4360000  29.8530000  17.3950000
 -51.0740000  27.8300000  16.6870000 -50.5930000  27.1510000  15.7830000
 -51.9490000  27.3110000  17.5380000 -52.6140000  27.8290000  18.0940000
 -52.4180000  26.5140000  17.1340000 -48.8940000  28.9970000  18.5420000
 -48.2610000  27.9540000  18.7050000 -49.3540000  29.7420000  19.5520000
 -49.9920000  30.4940000  19.3330000 -48.9180000  29.5480000  20.9460000
 -47.8400000  29.7020000  20.8860000 -49.5720000  30.5940000  21.9000000
 -50.6450000  30.6940000  21.7350000 -49.3220000  30.2350000  23.3750000
 -48.3580000  29.7570000  23.5440000 -49.4090000  31.1100000  24.0190000
 -50.1010000  29.4940000  23.5530000 -49.0780000  32.0000000  21.5880000
 -49.6050000  32.7140000  22.2210000 -49.4150000  32.4130000  20.6380000
 -48.0030000  32.0260000  21.4110000 -49.1490000  28.1160000  21.4590000
 -48.2760000  27.5340000  22.0960000 -50.3100000  27.5390000  21.1400000
 -50.8720000  28.0450000  20.4700000 -50.6550000  26.1660000  21.5870000
 -50.7130000  26.1840000  22.6760000 -52.0490000  25.7170000  21.0860000
 -52.2730000  25.6740000  20.0200000 -52.4410000  24.3030000  21.5950000
 -53.3990000  24.4390000  22.0960000 -51.8660000  23.6400000  22.2420000
 -52.6360000  23.6680000  20.7310000 -53.0020000  26.6780000  21.5280000
 -52.7240000  27.5840000  21.3790000 -49.5920000  25.1280000  21.1950000
 -49.3510000  24.1680000  21.9330000 -48.9460000  25.3220000  20.0380000
 -49.4710000  25.8190000  19.3340000 -47.9110000  24.3990000  19.5710000
 -48.2770000  23.4120000  19.8530000 -47.8770000  24.3550000  18.0470000
 -46.9760000  23.8230000  17.7420000 -47.7840000  25.3430000  17.5960000
 -49.1230000  23.6950000  17.5000000 -50.1680000  23.6250000  18.1490000
 -49.0710000  23.2160000  16.2880000 -48.3160000  22.6250000  15.9690000
 -49.9630000  23.3960000  15.8500000 -46.4980000  24.6340000  20.1310000
 -45.6210000  23.8010000  19.9200000 -46.2740000  25.7350000  20.8510000
 -46.8090000  26.5470000  20.5800000 -45.0570000  25.9440000  21.6330000
 -44.2280000  26.0100000  20.9280000 -45.0790000  27.2590000  22.4610000
 -45.8310000  27.4260000  23.2320000 -44.0500000  27.2440000  22.8190000
 -44.9720000  28.5670000  21.7410000 -45.3430000  28.7500000  20.3870000
 -45.1430000  28.0270000  19.6100000 -45.2380000  29.9990000  19.7780000
 -45.2940000  30.1780000  18.7140000 -44.7090000  31.0690000  20.4730000
 -44.5470000  32.2580000  19.8460000 -43.6250000  32.5230000  19.8170000
 -44.2650000  30.9030000  21.7750000 -43.5690000  31.6400000  22.1490000
 -44.3850000  29.6740000  22.4090000 -43.6790000  29.5950000  23.2220000
 -44.8610000  24.7710000  22.5960000 -43.7540000  24.2620000  22.7680000
 -45.9670000  24.3530000  23.2230000 -46.7340000  25.0070000  23.2810000
 -45.9680000  23.2090000  24.1260000 -45.1260000  23.3030000  24.8120000
 -47.3090000  23.1330000  24.8820000 -48.1870000  22.9190000  24.2740000
 -47.1940000  22.3550000  25.6380000 -47.5770000  24.3240000  25.7310000
 -46.7450000  24.5930000  26.8370000 -45.8720000  24.0130000  27.0980000
 -46.9930000  25.7010000  27.6440000 -46.2320000  25.9680000  28.3630000
 -48.0980000  26.5310000  27.3580000 -48.4990000  27.3490000  27.9380000
 -48.8690000  26.2820000  26.2410000 -49.4780000  27.0600000  25.8040000
 -48.6570000  25.1690000  25.4610000 -49.4270000  24.9530000  24.7360000
 -45.7030000  21.8900000  23.4320000 -45.0480000  21.0220000  24.0080000
 -46.2180000  21.7210000  22.2100000 -46.9890000  22.3130000  21.9350000
 -45.9290000  20.5250000  21.3960000 -46.0230000  19.5990000  21.9620000
 -46.9150000  20.3830000  20.2230000 -46.8740000  21.1940000  19.4960000
 -46.5550000  19.1750000  19.3340000 -47.3840000  19.0610000  18.6360000
 -45.6390000  19.3380000  18.7660000 -46.4560000  18.2110000  19.8330000
 -48.3820000  20.2220000  20.7370000 -49.0340000  20.7070000  20.0110000
 -48.6980000  19.1790000  20.7290000 -48.7670000  20.6240000  21.6740000
 -44.4910000  20.5270000  20.8930000 -43.8560000  19.4710000  20.8660000
 -43.9450000  21.6900000  20.5070000 -44.2230000  22.5370000  20.9810000
 -42.5910000  21.7840000  19.9820000 -42.4590000  21.0070000  19.2290000
 -42.3290000  23.0930000  19.1990000 -42.5210000  24.0350000  19.7130000
 -40.8340000  23.2800000  18.8300000 -40.0300000  22.8060000  19.3930000
 -40.6250000  24.3410000  18.9720000 -40.5700000  23.1260000  17.7840000
 -43.1710000  23.1120000  17.9110000 -44.1590000  22.6530000  17.9500000
 -43.2310000  24.1750000  17.6760000 -42.6330000  22.5940000  17.1170000
 -41.5990000  21.5830000  21.1370000 -40.5780000  20.9420000  20.9460000
 -41.8450000  22.1450000  22.3250000 -41.7830000  23.1390000  22.1580000
 -41.0000000  21.9210000  23.4950000 -40.0140000  22.3110000  23.2410000
 -41.3840000  22.7660000  24.7110000 -40.4900000  22.6720000  25.3270000
 -41.4760000  23.8080000  24.4070000 -42.4440000  22.2040000  25.4990000
 -42.4520000  22.5810000  26.3820000 -40.9170000  20.4360000  23.8410000
 -39.8210000  19.9000000  24.0090000 -42.0760000  19.7680000  23.8870000
 -42.9070000  20.3280000  24.0130000 -42.1400000  18.3240000  24.0870000
 -41.6060000  18.1620000  25.0230000 -43.6190000  17.8600000  24.0160000
 -44.0690000  18.2320000  24.9360000 -44.0940000  18.2700000  23.1240000
 -43.9000000  16.3540000  23.9220000 -43.5130000  15.9560000  22.9840000
 -43.2830000  15.6210000  25.1160000 -43.2060000  14.5740000  24.8230000
 -42.2390000  15.8890000  25.2830000 -43.7640000  15.7730000  26.0830000
 -45.4040000  16.0980000  23.8410000 -45.5950000  15.0430000  23.6420000
 -45.9090000  16.3190000  24.7810000 -45.8060000  16.5420000  22.9300000
 -41.3400000  17.5570000  23.0500000 -40.5580000  16.6680000  23.3990000
 -41.5290000  17.9240000  21.7770000 -42.1040000  18.7220000  21.5470000
 -40.8360000  17.2970000  20.6840000 -41.1050000  16.2460000  20.7890000
 -41.4110000  17.7690000  19.3370000 -40.8410000  17.3650000  18.5010000
 -41.4180000  18.8340000  19.1060000 -42.4080000  17.3290000  19.3120000
 -39.3220000  17.5570000  20.7520000 -38.5300000  16.6620000  20.4520000
 -38.9000000  18.7710000  21.1710000 -39.4790000  19.3410000  21.7710000
 -37.5070000  19.1210000  21.3360000 -36.9590000  19.0230000  20.3980000
 -37.3280000  20.6140000  21.7090000 -36.7130000  20.9710000  20.8830000
 -36.6860000  20.7960000  22.5710000 -38.0930000  21.3900000  21.7370000
 -36.8680000  18.2220000  22.4070000 -35.8280000  17.6080000  22.1730000
 -37.4890000  18.1610000  23.5910000 -37.5590000  19.0870000  23.9860000
 -37.1010000  17.2930000  24.6760000 -36.1090000  17.6200000  24.9880000
 -38.0960000  17.4050000  25.8520000 -37.4900000  17.6970000  26.7100000
 -38.5090000  16.4020000  25.9610000 -38.9130000  18.1260000  25.8570000
 -36.9590000  15.8200000  24.2800000 -36.0110000  15.1570000  24.7060000
 -37.9000000  15.3090000  23.4770000 -38.6480000  15.9040000  23.1510000
 -37.8690000  13.9150000  23.0200000 -37.7410000  13.3150000  23.9200000
 -39.2200000  13.5040000  22.3820000 -39.2220000  12.5060000  21.9430000
 -39.5120000  14.2590000  21.6520000 -40.3390000  13.3480000  23.4100000
 -40.0710000  12.8270000  24.5130000 -41.4970000  13.6730000  23.0690000
 -36.7060000  13.6610000  22.0450000 -36.1540000  12.5540000  22.0160000
 -36.3120000  14.6800000  21.2560000 -36.7140000  15.6010000  21.3560000
 -35.1280000  14.5700000  20.4020000 -35.2540000  13.6540000  19.8270000
 -34.9580000  15.7780000  19.4190000 -34.8430000  16.7660000  19.8660000
 -33.6220000  15.7010000  18.6700000 -32.8540000  16.1710000  19.2840000
 -33.5910000  16.3750000  17.8140000 -33.3550000  14.7340000  18.2440000
 -36.1260000  15.8070000  18.4260000 -35.8680000  15.1240000  17.6160000
 -37.0320000  15.5380000  18.9680000 -36.3860000  17.1960000  17.7980000
 -37.4380000  17.4120000  17.6130000 -35.9960000  18.0570000  18.3420000
 -35.8540000  17.3090000  16.8540000 -33.8970000  14.4160000  21.2950000
 -33.1210000  13.4820000  21.1120000 -33.7230000  15.3070000  22.2900000
 -33.8190000  16.2810000  22.0420000 -32.6710000  15.2110000  23.2670000
 -31.7720000  15.4680000  22.7070000 -32.7870000  16.3220000  24.3040000
 -33.5990000  16.2000000  25.0200000 -31.7430000  16.4200000  24.6010000
 -32.9380000  17.3220000  23.8980000 -32.6060000  13.8460000  23.9730000
 -31.5170000  13.3630000  24.2950000 -33.7730000  13.2270000  24.2150000
 -34.6410000  13.7290000  24.0920000 -33.8390000  11.8790000  24.7730000
 -33.2810000  11.9530000  25.7070000 -35.2770000  11.4580000  25.1260000
 -35.9150000  11.5500000  24.2470000 -35.4220000   9.9430000  25.4110000
 -34.5350000   9.3490000  25.1900000 -35.6210000   9.7410000  26.4630000
 -36.2030000   9.4680000  24.8170000 -35.7620000  12.2550000  26.3780000
 -35.8270000  13.3430000  26.3500000 -35.1360000  12.0090000  27.2360000
 -36.7560000  11.8890000  26.6320000 -33.2210000  10.8630000  23.8010000
 -32.4730000   9.9730000  24.2290000 -33.5380000  10.9740000  22.4830000
 -34.3000000  11.5020000  22.0810000 -32.9780000  10.1170000  21.4740000
 -33.4730000  10.1910000  20.5060000 -33.1570000   9.1130000  21.8600000
 -31.4970000  10.3400000  21.2240000 -30.7530000   9.3640000  21.1140000
 -31.0460000  11.6080000  21.1420000 -31.5030000  12.3600000  21.6380000
 -29.6650000  11.9360000  20.7950000 -29.2630000  11.2310000  20.0680000
 -29.4980000  13.3840000  20.2140000 -29.7180000  14.2730000  20.8050000
 -28.0130000  13.6760000  19.9120000 -27.8710000  14.3070000  19.0350000
 -27.4520000  14.2390000  20.6580000 -27.4230000  12.7930000  19.6660000
 -30.3550000  13.5740000  18.9670000 -30.7270000  12.6790000  18.4690000
 -31.0200000  14.4180000  19.1560000 -29.7390000  13.9870000  18.1680000
 -28.7640000  11.7500000  21.9970000 -27.7240000  11.1150000  21.8700000
 -29.1170000  12.3370000  23.1410000 -29.6980000  13.1560000  23.0330000
 -28.2440000  12.3450000  24.3210000 -27.2290000  12.0540000  24.0500000
 -28.2220000  13.7700000  24.9340000 -27.5440000  13.7100000  25.7850000
 -29.1960000  14.1660000  25.2210000 -27.6940000  14.8890000  24.0400000
 -28.1610000  15.0220000  23.0650000 -27.9570000  16.2690000  24.6860000
 -27.9870000  16.9430000  23.8300000 -27.0940000  16.6440000  25.2360000
 -28.8690000  16.5570000  25.2090000 -26.1840000  14.7200000  23.7540000
 -25.9560000  15.3930000  22.9280000 -25.7770000  13.7650000  23.4220000
 -25.5210000  15.0750000  24.5430000 -28.5980000  11.3110000  25.3830000
 -27.7210000  10.5590000  25.8140000 -29.8630000  11.2700000  25.8260000
 -30.4620000  12.0680000  25.6680000 -30.2320000  10.4710000  26.9810000
 -29.5750000  10.7790000  27.7940000 -31.6570000  10.7910000  27.4540000
 -31.6780000  10.5670000  28.5200000 -32.3530000  10.0290000  27.1040000
 -31.9800000  11.8300000  27.3960000 -30.0940000   8.9550000  26.7730000
 -29.5920000   8.2670000  27.6590000 -30.5160000   8.4320000  25.6130000
 -30.5870000   9.0530000  24.8200000 -30.4490000   6.9880000  25.3500000
 -30.8130000   6.4950000  26.2510000 -31.3510000   6.5840000  24.1430000
 -31.4250000   7.3800000  23.4020000 -30.8350000   5.3020000  23.4590000
 -31.0090000   5.0860000  22.4050000 -29.7530000   5.1810000  23.5050000
 -31.4620000   4.6020000  24.0120000 -32.7960000   6.3690000  24.6590000
 -33.1410000   7.2170000  25.2500000 -32.8640000   5.5640000  25.3910000
 -33.8210000   6.0960000  23.5460000 -33.4570000   5.7630000  22.5740000
 -34.3860000   5.2430000  23.9220000 -34.4790000   6.9530000  23.3990000
 -28.9940000   6.5060000  25.2010000 -28.6380000   5.4660000  25.7730000
 -28.1380000   7.1910000  24.4160000 -28.4100000   8.1380000  23.2920000
 -28.4990000   9.1700000  23.6310000 -29.1230000   7.8680000  22.5130000
 -27.1280000   8.0660000  22.4830000 -26.7970000   8.8810000  21.8400000
 -27.1480000   7.2230000  21.7910000 -26.0640000   7.8570000  23.5000000
 -25.2070000   7.3890000  23.0160000 -25.6510000   8.8140000  23.8200000
 -26.7080000   6.8350000  24.4280000 -26.4930000   5.8740000  23.9610000
 -26.0770000   6.8280000  25.8180000 -25.3490000   5.8940000  26.1510000
 -26.3370000   7.8540000  26.6280000 -26.1880000   8.7330000  26.1530000
 -25.9000000   7.8540000  28.0200000 -24.8230000   7.7010000  27.9500000
 -26.2320000   9.1900000  28.7110000 -27.2760000   9.4550000  28.5420000
 -26.0650000   9.0690000  29.7820000 -25.4360000  10.3610000  28.1920000
 -24.0390000  10.2750000  27.9040000 -23.3120000   9.4810000  27.9950000
 -23.3470000  11.3730000  27.4510000 -22.2840000  11.3490000  27.2650000
 -23.9750000  12.5640000  27.2570000 -23.3380000  13.3870000  26.9670000
 -25.3110000  12.7150000  27.5380000 -25.5230000  13.7720000  27.6030000
 -26.0660000  11.6300000  28.0280000 -27.0260000  11.8790000  28.4550000
 -26.4880000   6.7140000  28.8460000 -25.8120000   6.1500000  29.6920000
 -27.7470000   6.3570000  28.6020000 -28.2220000   6.8180000  27.8390000
 -28.3900000   5.2330000  29.2880000 -28.3350000   5.3320000  30.3720000
 -29.8910000   5.1640000  28.9830000 -30.2660000   4.6370000  29.8600000
 -30.4910000   6.0740000  28.9580000 -30.0930000   4.5320000  28.1180000
 -27.7230000   3.8960000  28.9110000 -27.5900000   3.0110000  29.7620000
 -27.2820000   3.7650000  27.6470000 -27.2240000   4.5720000  27.0420000
 -26.5720000   2.5880000  27.1780000 -27.1560000   1.7160000  27.4750000
 -26.3820000   2.6240000  25.6180000 -26.0990000   3.5760000  25.1700000
 -25.1620000   1.8140000  25.1510000 -25.1520000   1.5990000  24.0820000
 -24.8390000   0.9620000  25.7490000 -24.2890000   2.4660000  25.1850000
 -27.6960000   2.1500000  24.9730000 -27.8480000   1.0870000  25.1580000
 -28.5100000   2.6770000  25.4700000 -27.8110000   2.4880000  23.4740000
 -26.9410000   2.9770000  23.0360000 -27.8490000   1.4940000  23.0280000
 -28.6690000   3.0870000  23.1700000 -25.2500000   2.4360000  27.9260000
 -24.9310000   1.3310000  28.3840000 -24.4710000   3.5240000  28.0800000
 -24.6550000   4.4160000  27.6440000 -23.2080000   3.4660000  28.8110000
 -22.5670000   2.7720000  28.2670000 -22.4650000   4.8130000  28.7930000
 -21.4690000   4.6960000  29.2200000 -22.0780000   5.2570000  27.3670000
 -21.2780000   4.6040000  27.0190000 -21.6120000   6.2390000  27.4480000
 -22.7240000   5.3140000  26.4910000 -23.2310000   5.8270000  29.4310000
 -22.7120000   6.3170000  30.0730000 -23.4060000   2.9950000  30.2560000
 -22.6650000   2.1370000  30.7320000 -24.4460000   3.4970000  30.9450000
 -25.0760000   4.1410000  30.4890000 -24.7280000   3.1050000  32.3330000
 -23.7830000   3.2040000  32.8670000 -25.9120000   3.9440000  32.9100000
 -26.8330000   3.7360000  32.3660000 -26.2520000   3.5470000  34.3550000
 -26.6950000   2.5520000  34.3160000 -27.0670000   4.1970000  34.6720000
 -25.4330000   3.6400000  35.0680000 -25.6360000   5.4630000  32.8900000
 -25.7020000   5.9670000  31.9270000 -26.4810000   5.9280000  33.3980000
 -24.3300000   5.8810000  33.5870000 -24.6400000   6.6170000  34.3290000
 -23.8260000   5.1320000  34.1980000 -23.5590000   6.2100000  32.8900000
 -25.0340000   1.6130000  32.4900000 -24.8840000   1.0540000  33.5830000
 -25.4610000   0.9470000  31.4080000 -25.4970000   1.3720000  30.4920000
 -25.7530000  -0.4850000  31.4070000 -26.2860000  -0.7850000  32.3090000
 -26.6160000  -0.8290000  30.1840000 -27.1360000  -1.7650000  30.3850000
 -26.0250000  -1.0230000  29.2890000 -27.5540000   0.2120000  29.9600000
 -27.9540000   0.4790000  30.7910000 -24.5070000  -1.3550000  31.3740000
 -24.5840000  -2.5260000  31.7690000 -23.3690000  -0.8170000  30.8980000
 -23.2770000   0.1520000  30.6250000 -22.1470000  -1.6000000  30.6950000
 -22.3830000  -2.6220000  30.3980000 -21.2410000  -0.9390000  29.6400000
 -20.3910000  -1.5980000  29.4610000 -21.9800000  -0.7330000  28.2970000
 -21.6830000   0.1630000  27.7520000 -23.0510000  -0.9170000  28.2140000
 -21.5790000  -1.5240000  27.6640000 -20.7320000   0.3010000  30.1120000
 -19.9610000   0.5570000  29.6010000 -21.3130000  -1.7580000  31.9500000
 -20.4840000  -2.6790000  32.0010000 -21.4870000  -0.8820000  32.9630000
 -22.0470000  -0.0440000  32.8960000 -20.6350000  -0.9180000  34.1260000
 -20.7290000  -1.9460000  34.4750000 -20.7830000  -0.0700000  34.7950000
 -19.1950000  -0.6730000  33.7790000 -18.3120000  -1.3570000  34.2950000
 -18.9570000   0.3110000  32.9050000 -19.6270000   1.0640000  32.8360000
 -17.6150000   0.6590000  32.5170000 -17.0690000  -0.2810000  32.4310000
 -17.6010000   1.5270000  31.2390000 -17.0440000   0.7460000  30.7200000
 -17.6220000   1.7380000  30.1700000 -18.0030000   2.9550000  31.3710000
 -19.3780000   3.3280000  31.4290000 -20.1980000   2.7180000  31.0790000
 -19.7300000   4.6770000  31.6100000 -20.7270000   5.0300000  31.8300000
 -18.7290000   5.6470000  31.6200000 -18.8640000   6.7030000  31.4380000
 -17.4090000   5.2840000  31.5150000 -16.7120000   6.0230000  31.1490000
 -17.0380000   3.9610000  31.3920000 -16.0590000   3.8060000  30.9630000
 -16.9070000   1.3980000  33.6820000 -17.5590000   1.8630000  34.6280000
 -15.5620000   1.4460000  33.6350000 -15.0620000   1.1490000  32.8090000
 -14.7500000   1.9960000  34.7110000 -15.1340000   1.4770000  35.5890000
 -13.2940000   1.4680000  34.7040000 -12.8420000   1.3660000  33.7170000
 -12.5700000   2.0100000  35.3120000 -13.1310000  -0.2360000  35.1930000
 -14.7650000   3.5420000  34.6330000 -14.4030000   4.1160000  33.5940000
 -15.1170000   4.1920000  35.7310000 -15.1860000   3.6390000  36.5730000
 -15.1570000   5.6600000  35.8000000 -14.2710000   6.0620000  35.3090000
 -16.3820000   6.2000000  35.0380000 -16.1420000   6.1540000  33.9760000
 -16.5650000   7.2650000  35.1830000 -17.3000000   5.6630000  35.2760000
 -15.1880000   6.1200000  37.2480000 -15.5600000   5.3480000  38.1370000
 -14.7800000   7.3710000  37.4980000 -14.2990000   7.9080000  36.7910000
 -14.9010000   7.9750000  38.8270000 -14.2810000   7.4350000  39.5430000
 -14.2490000   9.3620000  38.8610000 -13.1640000   9.2580000  38.8870000
 -14.4700000   9.9440000  39.7550000 -14.4620000  10.0030000  38.0050000
 -16.3870000   8.0500000  39.2060000 -17.2190000   8.4240000  38.3690000
 -16.7240000   7.7260000  40.4620000 -16.0180000   7.7720000  41.1830000
 -18.1250000   7.6490000  40.9120000 -18.6760000   6.8370000  40.4380000
 -18.2020000   7.4120000  42.4420000 -17.9770000   8.2730000  43.0730000
 -17.6070000   6.5650000  42.7830000 -19.8710000   7.0550000  42.9720000
 -18.9230000   8.9010000  40.5660000 -20.0640000   8.7960000  40.1170000
 -18.3240000  10.0840000  40.7710000 -17.3750000  10.1370000  41.1140000
 -18.9970000  11.3590000  40.5390000 -19.9530000  11.3320000  41.0630000
 -18.2860000  12.5100000  41.2770000 -17.2570000  12.7160000  40.9820000
 -18.8360000  13.4420000  41.1430000 -18.2380000  12.2730000  42.7470000
 -17.1800000  11.6630000  43.4050000 -16.1960000  11.6670000  43.1800000
 -17.4620000  11.6240000  44.7020000 -16.7830000  11.4810000  45.5290000
 -18.6410000  12.1700000  44.9210000 -19.1450000  12.6190000  43.7230000
 -19.6810000  13.5540000  43.7990000 -19.1410000  11.6740000  39.0390000
 -20.0150000  12.4490000  38.6540000 -18.2650000  11.1250000  38.1800000
 -17.3130000  11.4190000  38.3440000 -18.4570000  11.1240000  36.7400000
 -17.6210000  10.7200000  36.1690000 -18.5040000  12.1630000  36.4150000
 -19.6270000  10.2460000  36.3420000 -20.4100000  10.6280000  35.4690000
 -19.7600000   9.0490000  36.9680000 -19.0480000   8.5960000  37.5230000
 -20.8680000   8.1610000  36.7040000 -20.8530000   7.9420000  35.6360000
 -20.6690000   6.7620000  37.3420000 -20.7750000   6.6050000  38.4160000
 -19.7200000   6.3310000  37.0230000 -21.9130000   5.6090000  36.8000000
 -22.1980000   8.7460000  37.1790000 -23.2270000   8.5640000  36.5250000
 -22.1820000   9.4650000  38.3140000 -21.3050000   9.8410000  38.6470000
 -23.3780000  10.1000000  38.8480000 -24.1800000   9.3630000  38.8250000
 -23.0510000  10.6870000  40.2530000 -22.3860000  11.5440000  40.1480000
 -22.5500000   9.9380000  40.8660000 -24.1770000  11.3440000  41.0390000
 -24.5780000  12.1480000  40.4220000 -25.2550000  10.3210000  41.4410000
 -25.9220000  10.5940000  42.2590000 -24.7960000   9.3910000  41.7780000
 -25.9130000  10.2870000  40.5730000 -23.5870000  12.0120000  42.2700000
 -23.1810000  11.2460000  42.9300000 -24.3830000  12.6830000  42.5960000
 -22.7190000  12.6540000  42.1220000 -23.8660000  11.2080000  37.9250000
 -25.0740000  11.3560000  37.7430000 -22.9400000  11.9910000  37.3350000
 -22.0260000  12.1390000  37.7380000 -23.2420000  13.0660000  36.4010000
 -23.8430000  13.8570000  36.8510000 -21.9290000  13.7980000  35.9880000
 -21.3500000  14.2400000  36.7990000 -21.2010000  13.2470000  35.3930000
 -22.1880000  14.9820000  35.1350000 -22.5070000  16.2520000  35.6970000
 -22.7230000  16.5670000  36.7070000 -22.6610000  17.3510000  34.8710000
 -22.6250000  18.3680000  35.2320000 -22.5720000  17.2310000  33.5070000
 -22.5260000  18.1230000  32.8990000 -22.2670000  16.0180000  32.9320000
 -21.9310000  16.0560000  31.9060000 -22.0360000  14.9060000  33.7260000
 -21.3550000  14.2540000  33.2000000 -23.9840000  12.5720000  35.1630000
 -24.9210000  13.2310000  34.7020000 -23.5660000  11.4140000  34.6300000
 -22.7240000  10.9810000  34.9800000 -24.1710000  10.8350000  33.4400000
 -24.1270000  11.6430000  32.7090000 -23.3520000   9.6230000  32.9130000
 -23.2760000   8.8220000  33.6480000 -24.0460000   9.0090000  31.6760000
 -24.7320000   9.8000000  31.3700000 -23.3660000   8.9130000  30.8300000
 -24.5770000   8.0630000  31.7770000 -21.9090000  10.0490000  32.5210000
 -21.8850000  10.4700000  31.5150000 -21.3990000  10.8740000  33.0170000
 -20.9140000   8.8890000  32.5710000 -20.8490000   8.5540000  31.5360000
 -19.9230000   9.3070000  32.7490000 -21.0170000   8.0080000  33.2040000
 -25.5980000  10.3500000  33.7550000 -26.5410000  10.6070000  32.9970000
 -25.7460000   9.6300000  34.8890000 -24.9630000   9.3490000  35.4620000
 -27.0320000   9.1570000  35.3540000 -27.4570000   8.5060000  34.5900000
 -26.8620000   8.3350000  36.6380000 -26.2810000   7.4230000  36.5010000
 -26.4600000   8.9070000  37.4740000 -27.8880000   8.0690000  36.8920000
 -27.9860000  10.3250000  35.6260000 -29.1790000  10.2490000  35.3130000
 -27.4490000  11.4210000  36.1900000 -26.4490000  11.5600000  36.2020000
 -28.2100000  12.6060000  36.4910000 -28.9980000  12.2510000  37.1560000
 -27.4400000  13.6030000  37.4060000 -26.3780000  13.7970000  37.2530000
 -27.9720000  14.5510000  37.3350000 -27.5510000  13.1340000  39.1640000
 -26.5510000  13.3140000  40.0310000 -28.6650000  13.2980000  35.1800000
 -29.7460000  13.8770000  35.1160000 -27.8210000  13.2560000  34.1330000
 -26.8350000  13.2300000  34.3500000 -28.1280000  13.8270000  32.8230000
 -28.3900000  14.8770000  32.9580000 -26.8620000  13.8430000  31.9230000
 -25.9360000  14.0780000  32.4480000 -26.6520000  12.9420000  31.3460000
 -26.8420000  14.9780000  30.9630000 -26.2490000  16.2190000  31.3240000
 -25.8830000  16.5520000  32.2840000 -26.1860000  17.2480000  30.4080000
 -25.6880000  18.1820000  30.6220000 -26.6980000  17.1040000  29.1540000
 -26.5250000  17.9310000  28.4810000 -27.2770000  15.9230000  28.7600000
 -27.4970000  15.9950000  27.7050000 -27.3810000  14.8370000  29.6630000
 -27.9770000  13.9830000  29.3770000 -29.2710000  13.0720000  32.1260000
 -30.1110000  13.6780000  31.4470000 -29.3110000  11.7350000  32.3070000
 -28.5910000  11.2490000  32.8220000 -30.4170000  10.9110000  31.8190000
 -30.5370000  11.1480000  30.7620000 -30.1180000   9.3910000  32.0080000
 -29.8380000   9.0840000  33.0160000 -31.3600000   8.4940000  31.7670000
 -32.3500000   8.8680000  32.0250000 -31.4640000   8.0380000  30.7820000
 -31.2800000   7.6480000  32.4500000 -28.9810000   8.9760000  31.0710000
 -28.2070000   9.7360000  30.9600000 -29.4550000   8.8260000  30.1010000
 -28.5200000   8.0730000  31.4720000 -31.7210000  11.2940000  32.5220000
 -32.7630000  11.3780000  31.8700000 -31.6510000  11.5560000  33.8380000
 -30.7750000  11.4710000  34.3320000 -32.8230000  11.9320000  34.6050000
 -33.5760000  11.1830000  34.3610000 -32.5150000  11.9590000  36.1110000
 -33.4500000  12.3300000  36.5290000 -31.7000000  12.6320000  36.3800000
 -32.2590000  10.5900000  36.7370000 -31.5590000   9.9800000  36.1670000
 -31.7260000  10.8070000  38.1720000 -30.8980000  11.4860000  38.3790000
 -31.3310000   9.8520000  38.5160000 -32.5720000  11.1840000  38.7470000
 -33.5430000   9.7130000  36.7460000 -33.9410000   9.5340000  37.7450000
 -33.3010000   8.7340000  36.3330000 -34.4050000   9.9830000  36.1360000
 -33.3880000  13.3010000  34.2240000 -34.6040000  13.4510000  34.1170000
 -32.5140000  14.2970000  34.0160000 -31.5330000  14.0940000  33.8910000
 -32.9260000  15.6450000  33.6470000 -33.5890000  16.0090000  34.4320000
 -31.7020000  16.5870000  33.5370000 -30.8870000  16.2460000  32.8980000
 -32.0450000  17.9390000  32.8740000 -32.0150000  17.8220000  31.7910000
 -31.2050000  18.6070000  33.0650000 -32.9850000  18.4550000  33.0710000
 -31.0730000  16.8440000  34.9060000 -31.7800000  17.3690000  35.5470000
 -30.1960000  17.4160000  34.6030000 -30.6090000  16.0210000  35.4500000
 -33.6970000  15.6320000  32.3270000 -34.7730000  16.2280000  32.2240000
 -33.1430000  14.9520000  31.3040000 -32.2820000  14.4410000  31.4390000
 -33.7200000  14.9850000  29.9750000 -33.7760000  16.0690000  29.8730000
 -32.7730000  14.4180000  28.9160000 -33.3740000  14.3140000  28.0120000
 -32.4150000  13.4430000  29.2480000 -31.6250000  15.3560000  28.5210000
 -31.0300000  15.7150000  29.3610000 -30.6430000  14.6240000  27.6340000
 -30.2310000  13.7230000  28.0890000 -31.1640000  14.4850000  26.6870000
 -29.8320000  15.3400000  27.5030000 -32.1590000  16.6280000  27.8100000
 -32.1210000  16.7670000  26.7300000 -31.3960000  17.3430000  28.1180000
 -33.1470000  16.9980000  28.0850000 -35.0670000  14.2360000  29.8680000
 -35.9990000  14.6720000  29.1930000 -35.1500000  13.0720000  30.5210000
 -34.3050000  12.6040000  30.8170000 -36.4190000  12.3350000  30.6510000
 -36.8930000  12.1320000  29.6910000 -36.1970000  10.9790000  31.3160000
 -37.1860000  10.5960000  31.5710000 -35.4520000  10.0070000  30.3590000
 -35.2280000  10.3130000  29.3380000 -34.5260000   9.6120000  30.7770000
 -36.0800000   9.1200000  30.2640000 -35.4580000  11.1120000  32.5180000
 -35.9160000  10.6870000  33.2470000 -37.4470000  13.1150000  31.4530000
 -38.6370000  13.0640000  31.1290000 -37.0050000  13.8470000  32.4780000
 -36.0090000  13.8850000  32.6410000 -37.9030000  14.6500000  33.2920000
 -38.6780000  13.9750000  33.6550000 -37.2150000  15.2790000  34.5050000
 -36.2790000  15.7950000  34.2930000 -37.9730000  15.9910000  34.8330000
 -37.1040000  14.3420000  35.7150000 -36.9780000  13.2810000  35.4990000
 -38.0540000  14.4400000  36.2390000 -36.0220000  14.7440000  36.7020000
 -35.1780000  15.5850000  36.4420000 -36.0400000  14.1010000  37.8600000
 -36.9160000  13.7440000  38.2150000 -35.1850000  13.7400000  38.2590000
 -38.5250000  15.7800000  32.4680000 -39.7320000  16.0190000  32.5740000
 -37.7170000  16.4720000  31.6420000 -36.7350000  16.2810000  31.5020000
 -38.1990000  17.5430000  30.7950000 -38.6980000  18.3080000  31.3890000
 -37.0420000  18.2280000  30.0550000 -36.2690000  18.7420000  30.6260000
 -37.5990000  18.9960000  29.5190000 -36.4180000  17.3440000  29.1490000
 -35.4650000  17.4550000  29.1880000 -39.2150000  17.0210000  29.7760000
 -40.2150000  17.7010000  29.5240000 -39.0110000  15.8100000  29.2090000
 -38.0960000  15.4000000  29.0890000 -40.0150000  15.1610000  28.3930000
 -40.2430000  15.7990000  27.5390000 -39.5040000  13.7900000  27.8400000
 -38.7240000  13.9330000  27.0920000 -39.2080000  12.9910000  28.5180000
 -40.5170000  13.1250000  27.1610000 -41.3730000  13.2080000  27.5890000
 -41.3300000  14.9820000  29.1430000 -42.3890000  15.2450000  28.5730000
 -41.2860000  14.5460000  30.4080000 -40.3840000  14.4110000  30.8430000
 -42.5100000  14.3480000  31.1960000 -43.1870000  13.7680000  30.5690000
 -42.2840000  13.5140000  32.4820000 -41.5280000  13.9650000  33.1250000
 -43.5610000  13.4780000  33.3470000 -43.8680000  12.4860000  33.6770000
 -43.2690000  14.1150000  34.1830000 -44.4610000  13.9060000  32.9060000
 -41.8490000  12.0660000  32.1110000 -42.6000000  11.5270000  31.5340000
 -40.9330000  12.0550000  31.5220000 -41.5600000  11.1610000  33.3100000
 -42.3490000  10.4700000  33.6070000 -41.2400000  11.7550000  34.1650000
 -40.6900000  10.5420000  33.0930000 -43.1510000  15.6980000  31.5530000
 -44.3800000  15.8230000  31.4680000 -42.3750000  16.7350000  31.9650000
 -41.3740000  16.7920000  32.0910000 -42.9310000  18.0010000  32.3490000
 -43.7370000  17.7770000  33.0470000 -41.8980000  18.8610000  33.1200000
 -42.4270000  19.7660000  33.4210000 -41.0010000  19.1510000  32.5740000
 -41.5480000  18.2970000  34.4690000 -42.5450000  17.9110000  35.3750000
 -43.4390000  18.5130000  35.4350000 -42.2200000  17.4330000  36.6270000
 -42.9470000  17.5560000  37.4160000 -40.9130000  17.3860000  37.0380000
 -40.8410000  17.1000000  38.0770000 -39.8890000  17.8490000  36.1970000
 -38.9160000  17.9960000  36.6420000 -40.2350000  18.3530000  34.9300000
 -39.7710000  19.3000000  34.6950000 -43.4970000  18.7800000  31.1660000
 -44.5320000  19.4240000  31.3040000 -42.8350000  18.7660000  30.0100000
 -41.8730000  19.0420000  30.1430000 -43.3860000  19.3420000  28.7800000
 -43.6800000  20.3790000  28.9450000 -42.3210000  19.3410000  27.6730000
 -41.9030000  18.3430000  27.5400000 -42.7740000  19.8440000  26.8200000
 -41.2250000  20.1650000  28.0040000 -41.5250000  21.0060000  28.3550000
 -44.6660000  18.6560000  28.3100000 -45.5100000  19.2830000  27.6700000
 -44.8000000  17.3740000  28.6240000 -43.9220000  16.9300000  28.8550000
 -46.0420000  16.6100000  28.4000000 -46.4430000  16.8580000  27.4170000
 -45.7910000  15.1000000  28.6800000 -46.0700000  14.9810000  29.7270000
 -44.7740000  14.7490000  28.5040000 -46.6720000  14.0610000  28.0080000
 -47.7050000  14.1650000  28.3390000 -46.5120000  14.1470000  26.4930000
 -47.2300000  14.8970000  26.1620000 -45.4500000  14.2560000  26.2710000
 -46.7940000  13.2450000  25.9500000 -46.2770000  12.6820000  28.5170000
 -47.0230000  11.9910000  28.1250000 -46.3530000  12.6230000  29.6030000
 -45.2740000  12.4100000  28.1910000 -47.1660000  17.0740000  29.3230000
 -48.3210000  17.1980000  28.8920000 -46.8190000  17.3370000  30.5960000
 -45.8660000  17.2570000  30.9220000 -47.7500000  17.8540000  31.5700000
 -48.5560000  17.1210000  31.5380000 -47.0760000  17.9130000  32.9650000
 -46.5520000  16.9680000  33.1110000 -46.4120000  18.7730000  33.0510000
 -47.9660000  18.1780000  34.1790000 -48.5670000  19.0790000  34.0570000
 -48.9180000  17.0360000  34.4290000 -49.1840000  17.1670000  35.4780000
 -49.8440000  17.2130000  33.8830000 -48.4380000  16.0880000  34.1880000
 -47.0750000  18.4820000  35.4160000 -47.6570000  18.9260000  36.2220000
 -46.4150000  19.3100000  35.1560000 -46.3990000  17.7460000  35.8530000
 -48.2180000  19.2540000  31.1620000 -49.4030000  19.5630000  31.2940000
 -47.3080000  20.1150000  30.6380000 -46.3380000  20.1570000  30.9170000
 -47.6300000  21.4300000  30.1530000 -47.9370000  22.0880000  30.9660000
 -46.3760000  22.1240000  29.6130000 -46.7860000  23.1090000  29.3920000
 -45.9120000  21.7570000  28.6980000 -45.6150000  22.2960000  30.3730000
 -48.7160000  21.4260000  29.0910000 -49.5590000  22.3200000  29.0930000
 -48.7020000  20.4370000  28.1890000 -47.9090000  19.8120000  28.1600000
 -49.7750000  20.3080000  27.1930000 -49.8570000  21.2490000  26.6500000
 -49.5000000  19.1730000  26.1660000 -49.3840000  18.2030000  26.6500000
 -50.7340000  18.9840000  25.2190000 -50.6310000  19.5060000  24.2680000
 -51.6400000  19.4440000  25.6150000 -51.1140000  18.0150000  24.8940000
 -48.2670000  19.5550000  25.3060000 -47.3840000  19.9100000  25.8380000
 -48.6370000  20.3180000  24.6210000 -47.7940000  18.4380000  24.4100000
 -46.9350000  18.1400000  25.0110000 -47.5760000  18.7580000  23.3910000
 -48.5230000  17.6400000  24.2660000 -51.1160000  20.0910000  27.9020000
 -52.1130000  20.7240000  27.5420000 -51.1520000  19.1950000  28.9000000
 -50.3880000  18.5450000  29.0160000 -52.3760000  18.9260000  29.6530000
 -53.1530000  18.6550000  28.9380000 -52.1570000  17.7360000  30.6060000
 -51.6770000  18.0450000  31.5350000 -51.5800000  16.9530000  30.1130000
 -53.1030000  17.2740000  30.8860000 -52.8860000  20.1490000  30.4240000
 -54.0940000  20.3860000  30.4510000 -51.9870000  20.9550000  31.0230000
 -50.9900000  20.8480000  30.9090000 -52.3570000  22.1660000  31.7390000
 -53.0560000  21.8980000  32.5310000 -51.1470000  22.7560000  32.5050000
 -50.3020000  23.0850000  31.8990000 -51.5140000  24.1070000  33.1550000
 -50.6990000  24.5860000  33.6980000 -51.7150000  24.8160000  32.3520000
 -52.3200000  24.0870000  33.8880000 -50.6600000  21.7570000  33.5850000
 -50.9060000  20.6990000  33.5000000 -51.1330000  22.0160000  34.5320000
 -49.1720000  21.9230000  33.9040000 -48.3100000  21.5840000  33.3290000
 -48.9390000  22.9720000  34.0870000 -49.1030000  21.4610000  34.8880000
 -52.9290000  23.1970000  30.7460000 -53.8980000  23.8840000  31.0590000
 -52.3130000  23.3480000  29.5630000 -51.3530000  23.6310000  29.6990000
 -52.8090000  24.1630000  28.4490000 -52.8100000  25.2190000  28.7170000
 -51.8250000  24.1270000  27.2450000 -50.9370000  24.6610000  27.5840000
 -51.5640000  23.1830000  26.7670000 -52.3450000  24.8850000  26.0330000
 -53.0140000  24.2660000  25.1710000 -52.0070000  26.0790000  25.9130000
 -54.2320000  23.7860000  28.0510000 -55.1250000  24.6390000  28.0150000
 -54.4530000  22.4950000  27.7830000 -53.6500000  21.8820000  27.7740000
 -55.7840000  22.0110000  27.3780000 -55.9860000  22.6080000  26.4890000
 -55.7040000  20.5700000  26.9480000 -54.9260000  20.6870000  26.1950000
 -55.4670000  20.0660000  27.8850000 -56.7220000  19.6200000  26.3200000
 -56.7390000  19.9200000  25.2720000 -57.7890000  19.6960000  26.5300000
 -55.7660000  18.4030000  26.0110000 -54.8390000  18.6890000  25.5140000
 -55.3830000  17.9960000  26.9470000 -56.2680000  17.2670000  25.2420000
 -57.2300000  16.9970000  25.3920000 -55.8090000  16.8810000  24.0530000
 -54.9140000  17.5680000  23.3300000 -54.2060000  17.0170000  22.8660000
 -54.8230000  18.5340000  23.0470000 -56.2590000  15.7430000  23.5070000
 -56.0180000  15.4790000  22.5620000 -56.8580000  15.0600000  23.9480000
 -56.7840000  22.1430000  28.5220000 -57.9850000  22.2740000  28.2780000
 -56.3050000  22.0910000  29.7800000 -55.3160000  22.1580000  29.9730000
 -57.1670000  22.2670000  30.9310000 -58.0510000  21.6400000  30.8160000
 -56.4620000  21.8890000  32.2680000 -55.7120000  22.5820000  32.6500000
 -55.9720000  20.9160000  32.2820000 -57.4140000  21.9010000  33.4130000
 -58.6000000  21.1200000  33.4070000 -59.0020000  20.4450000  32.6660000
 -59.4210000  21.1220000  34.5150000 -59.6390000  20.1500000  34.9330000
 -59.1650000  21.9180000  35.6070000 -60.0170000  21.8600000  36.6610000
 -59.5460000  21.7140000  37.4850000 -57.9920000  22.6650000  35.6490000
 -57.6200000  23.0880000  36.5700000 -57.1300000  22.6770000  34.5720000
 -56.2470000  23.2540000  34.8070000 -57.6720000  23.7010000  30.9880000
 -58.8690000  23.9150000  31.1420000 -56.7750000  24.6830000  30.8580000
 -55.9410000  24.4970000  31.3970000 -57.1420000  26.0990000  30.7800000
 -57.6370000  26.3360000  31.7220000 -55.9060000  27.0330000  30.5860000
 -55.3590000  26.7880000  29.6760000 -56.3150000  28.5120000  30.4760000
 -55.6310000  29.1040000  29.8690000 -56.2500000  28.9220000  31.4840000
 -57.3290000  28.7330000  30.1450000 -54.9200000  26.8930000  31.7750000
 -54.8350000  27.5910000  32.6080000 -55.3370000  26.1800000  32.4860000
 -53.4560000  27.1930000  31.3770000 -53.0210000  26.9160000  30.4170000
 -53.3330000  28.2740000  31.4400000 -52.7790000  26.8520000  32.1610000
 -58.1200000  26.3150000  29.6280000 -59.1440000  26.9730000  29.8160000
 -57.8230000  25.7480000  28.4410000 -56.9680000  25.2350000  28.2750000
 -58.6640000  25.8740000  27.2580000 -58.7960000  26.9010000  26.9190000
 -58.0420000  25.0800000  26.0940000 -58.8240000  25.0910000  25.3350000
 -57.8250000  24.0260000  26.2710000 -57.1650000  25.5190000  25.6180000
 -60.1040000  25.4140000  27.4720000 -61.0330000  26.0690000  26.9830000
 -60.3040000  24.2900000  28.1700000 -59.5430000  23.8230000  28.6420000
 -61.6450000  23.7410000  28.3330000 -62.2250000  24.1230000  27.4930000
 -61.6130000  22.1930000  28.3640000 -61.0690000  21.9250000  29.2690000
 -63.0100000  21.5960000  28.5910000 -62.7390000  20.6130000  28.9770000
 -63.7220000  21.5650000  27.7660000 -63.5490000  22.0790000  29.4060000
 -60.9760000  21.6220000  27.0370000 -60.0260000  22.1160000  26.8290000
 -60.7430000  20.5590000  26.9910000 -61.7750000  21.8890000  25.7750000
 -61.2920000  21.4050000  24.9260000 -61.7170000  22.9570000  25.5660000
 -62.8080000  21.5540000  25.8760000 -62.3380000  24.3110000  29.5660000
 -63.5450000  24.5560000  29.5330000 -61.5980000  24.5440000  30.6600000
 -60.6200000  24.7600000  30.5290000 -62.1820000  25.0330000  31.9190000
 -63.1640000  24.5820000  32.0600000 -61.2840000  24.6580000  33.1170000
 -60.2690000  25.0540000  33.1450000 -61.2380000  23.5730000  33.0270000
 -61.9380000  25.0150000  34.4890000 -62.8220000  24.3890000  34.6130000
 -62.3080000  26.0160000  34.7060000 -60.9530000  24.6730000  35.6130000
 -60.0460000  25.2730000  35.6920000 -60.7750000  23.6180000  35.4070000
 -61.4920000  24.7270000  36.9890000 -61.6170000  23.8450000  37.4640000
 -61.7760000  25.7470000  37.7940000 -61.6280000  27.0030000  37.3850000
 -62.3980000  27.6430000  37.5190000 -60.7390000  27.4630000  37.5150000
 -62.2220000  25.4760000  39.0300000 -61.7600000  25.8260000  39.8570000
 -63.0730000  24.9890000  39.2710000 -62.4370000  26.5250000  31.8880000
 -63.4610000  26.9590000  32.3780000 -61.5050000  27.3120000  31.3550000
 -60.5600000  26.9740000  31.4670000 -61.5990000  28.7860000  31.2440000
 -62.5430000  29.2460000  31.5390000 -60.4720000  29.4190000  32.0960000
 -59.4950000  29.4160000  31.6140000 -60.7900000  30.9010000  32.3650000
 -61.3680000  30.9680000  33.2870000 -61.3550000  31.3520000  31.5490000
 -59.8750000  31.4190000  32.6520000 -60.1910000  28.7260000  33.4430000
 -61.2720000  28.6910000  33.5820000 -60.3760000  28.0610000  34.2870000
 -58.9790000  29.2300000  34.2070000 -58.4280000  28.4060000  34.6600000
 -58.1870000  29.7220000  33.6430000 -59.2460000  29.8930000  35.0310000
 -61.4810000  29.1950000  29.7910000 -60.4780000  29.7880000  29.3860000
 -62.5110000  28.9210000  28.9750000 -63.8880000  28.5080000  29.2850000
 -64.1710000  27.8590000  30.1130000 -64.4260000  29.4510000  29.3810000
 -64.2040000  27.5950000  28.1360000 -65.2360000  27.2480000  28.1840000
 -63.5910000  26.6980000  28.2290000 -63.5940000  28.3190000  26.9540000
 -64.3730000  29.0420000  26.7130000 -63.2620000  27.6290000  26.1790000
 -62.3510000  29.0360000  27.5190000 -61.4150000  28.6020000  27.1670000
 -62.2860000  30.4650000  27.0030000 -61.7120000  30.6950000  25.9360000
 -62.8510000  31.4290000  27.7520000 -63.0090000  31.3090000  28.7420000
 -62.8640000  32.7970000  27.2900000 -62.8980000  32.8330000  26.2010000
 -64.0280000  33.5620000  27.9290000 -63.8300000  34.5350000  27.4800000
 -63.9890000  33.5660000  29.0180000 -65.4430000  33.0080000  27.6630000
 -65.5030000  31.9750000  28.0050000 -66.4560000  33.8100000  28.4880000
 -67.4300000  33.3230000  28.5460000 -66.1370000  33.9410000  29.5220000
 -66.5950000  34.7650000  27.9820000 -65.8320000  33.0890000  26.1790000
 -65.4370000  34.0020000  25.7350000 -66.9030000  33.2100000  26.0190000
 -65.5040000  32.2710000  25.5370000 -61.5320000  33.4730000  27.5660000
 -60.9130000  33.9890000  26.6330000 -61.0470000  33.4230000  28.8230000
 -61.6650000  33.2650000  29.6070000 -59.7330000  33.9880000  29.1620000
 -59.6840000  34.9670000  28.6830000 -59.5910000  34.0850000  30.6740000
 -58.5860000  34.3630000  30.9920000 -59.6420000  33.0450000  30.9990000
 -60.2940000  35.3110000  31.3380000 -61.1100000  36.0030000  31.1310000
 -59.5970000  36.0650000  30.9730000 -60.7080000  34.9990000  32.7580000
 -60.0190000  34.3630000  33.3140000 -60.6230000  35.9160000  33.3420000
 -61.9210000  34.0940000  32.7760000 -62.3690000  33.7620000  31.9340000
 -62.6770000  33.8260000  33.8250000 -62.4500000  34.3970000  35.0110000
 -62.0620000  33.8050000  35.7320000 -62.7610000  35.2590000  35.4350000
 -63.6800000  32.9500000  33.6990000 -63.6540000  31.9770000  33.4300000
 -64.4010000  33.0010000  34.4050000 -58.5160000  33.2470000  28.6090000
 -57.4160000  33.7760000  28.7440000 -58.6770000  32.0740000  27.9770000
 -59.5300000  31.5420000  28.0760000 -57.5660000  31.3380000  27.3850000
 -57.0470000  30.9350000  28.2550000 -58.0730000  30.2290000  26.4150000
 -58.7200000  29.5100000  26.9180000 -58.6610000  30.6570000  25.6030000
 -56.9450000  29.4110000  25.8110000 -56.3480000  28.3760000  26.5590000
 -56.6530000  28.2010000  27.5790000 -55.3030000  27.6110000  26.0050000
 -54.7590000  26.8380000  26.5290000 -54.8390000  27.8830000  24.7190000
 -53.8300000  27.1610000  24.1980000 -53.0750000  27.7170000  23.9920000
 -55.4110000  28.9200000  23.9790000 -55.0740000  29.1450000  22.9780000
 -56.4640000  29.6540000  24.5060000 -56.9530000  30.2600000  23.7580000
 -56.5560000  32.2050000  26.6240000 -55.3560000  32.1180000  26.8800000
 -57.0260000  33.0420000  25.6790000 -58.0010000  33.0850000  25.4170000
 -56.1330000  33.8730000  24.8830000 -55.2800000  33.2850000  24.5420000
 -56.8620000  34.4380000  23.6190000 -57.8700000  34.8500000  23.5850000
 -56.1360000  35.1430000  23.2150000 -57.0200000  33.4230000  22.5370000
 -58.1370000  33.1330000  22.1160000 -55.9040000  32.9030000  22.0440000
 -55.8630000  31.9910000  21.6110000 -55.2860000  33.5150000  21.5300000
 -55.4780000  35.0030000  25.6810000 -54.3870000  35.4570000  25.3110000
 -56.1430000  35.4900000  26.7520000 -57.1380000  35.3740000  26.8780000
 -55.5750000  36.4830000  27.6660000 -56.3000000  37.0770000  28.2220000
 -54.9300000  37.1820000  27.1340000 -54.6450000  35.9140000  28.7000000
 -53.7730000  36.6320000  29.1670000 -54.8500000  34.6830000  29.1230000
 -55.7730000  34.7900000  29.5210000 -53.9270000  33.9890000  30.0170000
 -53.5590000  34.7400000  30.7170000 -54.6370000  32.9170000  30.8720000
 -53.8910000  32.1460000  31.0670000 -55.5350000  32.5240000  30.3940000
 -54.9640000  33.3680000  32.2890000 -54.0700000  33.5340000  32.8890000
 -55.8410000  34.6460000  32.3780000 -56.6960000  34.4320000  33.0190000
 -56.1890000  35.4010000  31.6740000 -55.1960000  35.2700000  32.9970000
 -55.6230000  32.2150000  33.0810000 -55.0130000  31.3130000  33.1110000
 -55.6350000  32.5130000  34.1300000 -56.6410000  31.9550000  32.7900000
 -52.7280000  33.3730000  29.2830000 -51.5850000  33.6110000  29.6700000
 -52.9660000  32.6270000  28.2070000 -53.4490000  33.1750000  27.5100000
 -51.9700000  31.8110000  27.5150000 -51.2100000  31.4910000  28.2280000
 -52.5630000  30.5010000  26.9560000 -53.2570000  30.7040000  26.1400000
 -51.4750000  29.6410000  26.3050000 -51.8800000  28.6700000  26.0190000
 -50.6560000  29.4870000  27.0070000 -51.1840000  30.1400000  25.3810000
 -53.2670000  29.7110000  28.0760000 -53.5240000  30.2930000  28.9610000
 -52.5630000  28.9680000  28.4520000 -54.1560000  29.2540000  27.6420000
 -51.3700000  32.6610000  26.3840000 -51.7030000  32.4820000  25.2080000
 -50.5000000  33.6090000  26.7380000 -50.0560000  33.5060000  27.6400000
 -49.7870000  34.4440000  25.7510000 -50.4150000  34.5920000  24.8720000
 -49.4220000  35.8320000  26.3260000 -49.0000000  36.4970000  25.5720000
 -50.6810000  36.5820000  26.7810000 -51.4400000  36.0920000  27.3910000
 -51.1730000  36.8800000  25.8540000 -50.4460000  37.5340000  27.2570000
 -48.5010000  35.6950000  27.3980000 -48.1530000  36.5600000  27.6240000
 -48.5080000  33.7330000  25.3410000 -48.0320000  32.8430000  26.0570000
 -47.9260000  34.1320000  24.1940000 -48.3180000  34.8450000  23.5960000
 -46.6610000  33.5720000  23.7030000 -46.2770000  34.2180000  22.9130000
 -46.7410000  32.5870000  23.2440000 -45.5050000  33.7160000  24.6710000
 -44.6510000  32.8330000  24.7520000 -45.4480000  34.8620000  25.3740000
 -45.8470000  35.6870000  24.9510000 -44.3880000  35.1470000  26.3350000
 -43.4820000  34.9690000  25.7560000 -44.2820000  36.6630000  26.6840000
 -45.1310000  37.2020000  27.1030000 -43.1010000  36.9400000  27.6390000
 -42.1140000  36.5040000  27.4820000 -42.8960000  38.0100000  27.6780000
 -43.4140000  36.7300000  28.6620000 -44.1390000  37.3830000  25.4840000
 -43.5120000  38.1020000  25.5970000 -44.5520000  34.3030000  27.6110000
 -43.6140000  33.7420000  28.1450000 -45.7740000  34.2460000  28.1330000
 -46.2220000  35.1450000  28.0330000 -46.0870000  33.4060000  29.3040000
 -45.4000000  33.6880000  30.1020000 -47.4900000  33.6640000  29.8340000
 -47.5360000  33.0740000  30.7490000 -48.2860000  33.2100000  29.2440000
 -47.6690000  35.0830000  30.4300000 -47.2780000  35.0480000  31.4470000
 -47.0740000  35.9200000  30.0650000 -49.1380000  35.3960000  30.6230000
 -49.4210000  34.8460000  31.5210000 -49.7290000  35.3070000  29.7120000
 -49.3930000  36.7920000  30.9440000 -48.6300000  37.4400000  31.0830000
 -50.5970000  37.2880000  31.1620000 -51.6600000  36.5140000  31.1950000
 -51.5560000  35.5690000  31.5380000 -52.4080000  36.9380000  31.7250000
 -50.7380000  38.5840000  31.4330000 -51.4540000  39.1740000  31.0330000
 -50.1980000  39.0940000  32.1180000 -45.9280000  31.9080000  29.0370000
 -45.5870000  31.1590000  29.9540000 -46.1530000  31.4800000  27.7910000
 -46.3680000  32.1650000  27.0810000 -45.9280000  30.0990000  27.3970000
 -46.5460000  29.5320000  28.0930000 -46.4310000  29.8190000  25.9730000
 -45.6370000  29.3490000  25.3940000 -46.7730000  30.6620000  25.3730000
 -47.2530000  29.1090000  26.0620000 -44.4340000  29.7290000  27.4790000
 -44.0830000  28.6040000  27.8360000 -43.5520000  30.6820000  27.1150000
 -43.8310000  31.3570000  26.4170000 -42.1110000  30.5420000  27.2770000
 -41.7840000  29.6740000  26.7050000 -41.3430000  31.6670000  26.5800000
 -41.6040000  31.4610000  25.5420000 -40.3230000  31.3080000  26.7200000
 -41.3250000  33.2420000  26.7980000 -40.8230000  33.9970000  27.4040000
 -41.5460000  32.9600000  27.8270000 -40.1780000  33.4770000  25.7200000
 -39.2530000  32.9560000  25.9670000 -40.5960000  33.3350000  24.7240000
 -39.5850000  34.8680000  25.4740000 -39.6230000  35.3670000  26.4430000
 -39.8840000  35.7750000  24.9490000 -38.4660000  34.6690000  24.4930000
 -37.6100000  34.8950000  24.9790000 -38.3430000  33.7640000  24.0610000
 -38.4910000  35.2670000  23.6790000 -41.7100000  30.4770000  28.7500000
 -40.7820000  29.7350000  29.0950000 -42.3830000  31.2580000  29.6470000
 -42.9550000  32.0780000  29.5090000 -42.1960000  31.1550000  31.0660000
 -41.1690000  31.4530000  31.2780000 -42.7880000  31.8460000  31.6670000
 -42.4380000  29.7470000  31.5590000 -41.5750000  29.1790000  32.2140000
 -43.6150000  29.2060000  31.2630000 -44.2840000  29.9040000  31.5550000
 -44.0000000  27.8230000  31.6000000 -44.0810000  27.7490000  32.6850000
 -45.4040000  27.4720000  31.0540000 -45.4500000  27.7420000  29.9990000
 -45.7100000  25.9460000  31.2170000 -46.7140000  25.6970000  30.8730000
 -45.7070000  25.6480000  32.2660000 -45.0060000  25.2720000  30.7280000
 -46.5270000  28.2710000  31.7940000 -46.4060000  29.3260000  32.0380000
 -46.6910000  27.8890000  32.8020000 -47.8910000  28.2400000  31.1070000
 -48.0240000  28.0990000  30.0350000 -48.4800000  27.4640000  31.5970000
 -48.4180000  29.1510000  31.3890000 -42.9520000  26.8110000  31.1100000
 -42.5190000  25.9490000  31.8830000 -42.5380000  26.9180000  29.8320000
 -42.6570000  27.7940000  29.3430000 -41.5890000  25.9680000  29.2470000
 -42.0020000  24.9820000  29.4590000 -41.4270000  26.1550000  27.7050000
 -41.0820000  27.1420000  27.3970000 -40.2670000  25.3130000  27.1430000
 -40.3250000  24.2500000  27.3780000 -39.3030000  25.6840000  27.4920000
 -40.1030000  25.4700000  26.0770000 -42.7440000  25.7460000  27.0230000
 -42.8360000  24.6680000  27.1560000 -43.6280000  26.1550000  27.5110000
 -42.9090000  26.3180000  25.5980000 -42.1260000  26.0960000  24.8730000
 -43.8860000  25.9700000  25.2610000 -42.8880000  27.4080000  25.5650000
 -40.2370000  26.0620000  29.9660000 -39.6320000  25.0330000  30.2610000
 -39.7420000  27.2740000  30.2550000 -39.6710000  27.8920000  29.4590000
 -38.5450000  27.4700000  31.0310000 -37.7220000  27.0480000  30.4550000
 -38.1910000  28.9670000  31.1630000 -38.8160000  29.8290000  30.9270000
 -37.3280000  29.0620000  30.5030000 -37.8260000  29.1770000  32.1680000
 -38.6140000  26.8110000  32.4140000 -37.6790000  26.1220000  32.8230000
 -39.7150000  27.0460000  33.1330000 -40.1010000  27.9660000  32.9780000
 -39.9630000  26.4010000  34.4270000 -39.1910000  26.7970000  35.0870000
 -41.3180000  26.7930000  35.0690000 -42.1930000  26.5150000  34.4810000
 -41.5770000  26.0000000  36.3800000 -42.4300000  26.3750000  36.9440000
 -40.7800000  26.0570000  37.1220000 -41.9200000  24.9940000  36.1420000
 -41.3660000  28.3140000  35.4020000 -40.7920000  29.0840000  34.8870000
 -40.9470000  28.4460000  36.3990000 -42.7850000  28.8680000  35.4570000
 -42.8410000  29.3500000  36.4340000 -43.6600000  28.2180000  35.4460000
 -42.9560000  29.6880000  34.7600000 -39.8640000  24.8700000  34.2980000
 -39.2720000  24.2330000  35.1680000 -40.4470000  24.2570000  33.2440000
 -41.4200000  24.4820000  33.0900000 -40.3230000  22.8370000  32.9900000
 -40.9090000  22.3450000  33.7660000 -41.0150000  22.3930000  31.6680000
 -40.8800000  21.3280000  31.4780000 -40.7770000  22.8880000  30.7260000
 -42.7860000  22.6590000  31.5170000 -43.7610000  22.8440000  32.4110000
 -38.8630000  22.3730000  32.9660000 -38.5490000  21.3160000  33.5200000
 -37.9780000  23.1430000  32.3050000 -38.2630000  23.9540000  31.7750000
 -36.5740000  22.7790000  32.1870000 -36.5690000  21.7130000  31.9650000
 -35.9420000  23.3920000  30.9230000 -34.8540000  23.4240000  30.9880000
 -36.1640000  24.4270000  30.6640000 -36.3400000  22.6270000  29.7230000
 -37.4460000  22.7880000  28.9360000 -38.1530000  23.6030000  28.8880000
 -37.4340000  21.8880000  27.9100000 -37.9710000  21.9930000  27.0610000
 -36.3290000  21.0930000  28.0040000 -35.8550000  20.1180000  27.1590000
 -35.9610000  20.4370000  26.1320000 -34.6450000  19.5070000  27.4710000
 -34.0180000  19.4000000  26.5990000 -33.9080000  19.9090000  28.5970000
 -32.8300000  19.8530000  28.5600000 -34.3580000  20.9420000  29.4100000
 -33.6110000  21.5220000  29.9310000 -35.5990000  21.5390000  29.1400000
 -35.7560000  23.1130000  33.4420000 -34.7940000  22.4210000  33.7500000
 -36.0880000  24.1830000  34.1650000 -36.1680000  24.9990000  33.5750000
 -35.4320000  24.4770000  35.4370000 -34.3560000  24.4660000  35.2640000
 -35.6750000  25.9260000  35.9050000 -36.6990000  26.2670000  36.0630000
 -35.0750000  26.1670000  37.3160000 -35.3920000  25.5180000  38.1320000
 -33.9860000  26.2050000  37.3490000 -35.4060000  27.1480000  37.6560000
 -35.0160000  26.9240000  34.9060000 -35.3380000  27.9130000  35.2320000
 -33.9330000  26.9140000  35.0310000 -35.1440000  26.9760000  33.8250000
 -35.7850000  23.4170000  36.4860000 -34.8970000  22.9240000  37.1680000
 -37.0560000  23.0410000  36.6240000 -37.5940000  23.8780000  36.7980000
 -37.4690000  21.9070000  37.4600000 -37.1540000  22.1520000  38.4750000
 -39.0010000  21.6940000  37.4150000 -39.2320000  20.7290000  37.8670000
 -39.3740000  21.7210000  36.3920000 -39.8540000  22.6860000  38.2010000
 -39.7450000  23.7490000  37.9830000 -41.3530000  22.3380000  37.9670000
 -41.9470000  23.1510000  38.3830000 -41.7230000  22.1850000  36.9530000
 -41.6880000  21.4490000  38.5020000 -39.5300000  22.6580000  39.7060000
 -39.8540000  21.7600000  40.2320000 -38.5560000  22.9230000  40.1170000
 -40.1570000  23.4480000  40.1190000 -36.8030000  20.5840000  37.0880000
 -36.5350000  19.7680000  37.9670000 -36.5570000  20.3540000  35.8010000
 -36.9480000  20.9990000  35.1290000 -35.8230000  19.1470000  35.3720000
 -36.2350000  18.2870000  35.8990000 -35.8370000  19.0360000  33.8220000
 -35.2130000  18.2900000  33.3300000 -35.5410000  19.9920000  33.3900000
 -37.0980000  18.6190000  33.3920000 -37.6060000  18.2540000  34.1200000
 -34.3930000  19.1250000  35.8710000 -33.9480000  18.1010000  36.3850000
 -33.6610000  20.2400000  35.7400000 -34.1260000  21.1160000  35.5520000
 -32.2650000  20.3560000  36.2140000 -31.5670000  19.6330000  35.7900000
 -31.6120000  21.6640000  35.7000000 -32.2540000  22.5420000  35.6300000
 -30.8170000  22.0530000  36.3370000 -31.0300000  21.5160000  34.3260000
 -31.8410000  21.2820000  33.1840000 -32.8030000  21.7470000  33.0240000
 -31.2640000  21.2050000  31.9230000 -31.6550000  21.7800000  31.0970000
 -29.9170000  21.3390000  31.7520000 -29.4730000  21.3200000  30.7670000
 -29.1200000  21.6480000  32.8180000 -28.1260000  21.9890000  32.5700000
 -29.6530000  21.7590000  34.0930000 -29.0140000  22.4080000  34.6740000
 -32.2250000  20.2580000  37.7410000 -31.4720000  19.4640000  38.2940000
 -33.0170000  21.0780000  38.4390000 -32.8200000  22.0400000  38.2030000
 -33.1520000  21.0580000  39.8800000 -32.2400000  21.4490000  40.3300000
 -34.2780000  22.0100000  40.3570000 -33.8110000  22.9900000  40.4540000
 -34.4590000  21.7010000  41.3860000 -35.2750000  22.1940000  39.9580000
 -33.3410000  19.6720000  40.4760000 -32.6880000  19.3560000  41.4590000
 -34.2300000  18.8850000  39.8850000 -34.7780000  19.3410000  39.1690000
 -34.5780000  17.5620000  40.4180000 -34.5760000  17.7160000  41.4970000
 -35.9960000  17.0940000  40.0180000 -36.0520000  16.9710000  38.9360000
 -36.3280000  15.7180000  40.6670000 -35.8530000  15.7440000  41.6480000
 -35.9620000  14.7870000  40.2350000 -37.3770000  15.5590000  40.9170000
 -37.0720000  18.1080000  40.5240000 -36.8260000  19.1700000  40.5200000
 -37.3220000  17.9780000  41.5770000 -38.4040000  17.9650000  39.8110000
 -38.4170000  17.2460000  38.9920000 -39.1690000  17.7390000  40.5550000
 -38.7500000  18.9490000  39.4940000 -33.5690000  16.4930000  39.9640000
 -33.1060000  15.6900000  40.7730000 -33.2220000  16.4900000  38.6560000
 -33.2670000  17.3600000  38.1450000 -32.3290000  15.4910000  38.0900000
 -33.0390000  14.6680000  38.1710000 -32.0120000  15.2620000  37.0720000
 -30.8890000  15.6530000  38.5650000 -30.1470000  14.6790000  38.5530000
 -30.4560000  16.8800000  38.9320000 -31.1030000  17.6010000  39.2170000
 -29.1070000  17.1220000  39.4450000 -28.4000000  16.3360000  39.1790000
 -28.5590000  18.4670000  38.9340000 -27.5650000  18.6560000  39.3400000
 -29.1200000  19.2970000  39.3630000 -28.4340000  18.6030000  37.4010000
 -29.3070000  18.3210000  36.8130000 -28.1790000  20.0830000  37.0640000
 -27.7620000  20.2260000  36.0670000 -29.0660000  20.6950000  37.2260000
 -27.4270000  20.5250000  37.7180000 -27.3070000  17.7100000  36.8610000
 -27.6680000  16.8270000  36.3340000 -26.4600000  17.5110000  37.5180000
 -26.8220000  18.2660000  36.0590000 -29.0500000  17.1120000  40.9680000
 -27.9580000  17.2200000  41.5140000 -30.1740000  17.0040000  41.6820000
 -30.8480000  17.7080000  41.4160000 -30.1820000  16.8780000  43.1390000
 -29.8550000  17.8600000  43.4820000 -31.5920000  16.5760000  43.7230000
 -31.9260000  15.5560000  43.5330000 -31.5990000  16.6880000  45.2640000
 -31.3530000  17.6900000  45.6140000 -32.5710000  16.4960000  45.7190000
 -30.9000000  16.0390000  45.7910000 -32.5320000  17.5030000  43.2140000
 -32.5230000  18.3290000  43.7040000 -29.1740000  15.8690000  43.6920000
 -28.4860000  16.2040000  44.6670000 -29.0140000  14.6740000  43.0580000
 -29.9890000  14.0450000  42.0870000 -30.2270000  13.7390000  41.0680000
 -29.7260000  14.8820000  41.4410000 -29.5970000  12.5610000  42.2630000
 -29.7430000  11.6340000  41.7080000 -30.3500000  12.4580000  43.0440000
 -28.1880000  12.4990000  42.7000000 -27.6200000  12.3320000  41.7850000
 -28.0710000  11.6810000  43.4120000 -28.0060000  13.7500000  43.5560000
 -28.2620000  13.5670000  44.5990000 -26.5610000  14.2580000  43.4760000
 -25.7170000  13.8430000  44.2730000 -26.2380000  15.1430000  42.5190000
 -26.7410000  15.1150000  41.6440000 -24.9150000  15.7920000  42.4550000
 -24.0400000  15.1420000  42.4210000 -24.8040000  16.6450000  41.2160000
 -25.4240000  17.5400000  41.2680000 -23.8270000  17.1240000  41.2830000
 -24.8230000  15.8840000  39.8500000 -24.9450000  16.7850000  39.2490000
 -25.3710000  15.0950000  39.3330000 -23.4070000  14.8430000  39.6420000
 -22.1080000  16.0730000  39.4390000 -21.5810000  15.6920000  40.3140000
 -21.3550000  16.0260000  38.6520000 -22.3290000  17.1370000  39.5240000
 -24.5750000  16.6250000  43.6710000 -23.3920000  16.7180000  44.0210000
 -25.5760000  17.2040000  44.3470000 -26.5440000  16.9700000  44.1730000
 -25.3540000  18.0760000  45.4940000 -24.5060000  18.7090000  45.2310000
 -26.6570000  18.8810000  45.7560000 -27.3740000  18.2450000  46.2770000
 -26.9590000  19.2550000  44.7770000 -26.6490000  20.1190000  46.6700000
 -26.4350000  19.9100000  47.7180000 -25.6170000  21.1760000  46.2420000
 -24.5680000  20.8870000  46.3040000 -25.7810000  21.5900000  45.2470000
 -25.6930000  22.0310000  46.9140000 -28.0810000  20.7190000  46.6900000
 -28.6490000  20.2510000  47.4940000 -28.0800000  21.7810000  46.9340000
 -28.6860000  20.6470000  45.7860000 -24.9200000  17.3340000  46.7630000
 -24.5640000  17.9850000  47.7480000 -24.8910000  15.9920000  46.7680000
 -24.3900000  15.5700000  46.0000000 -24.5270000  15.2120000  47.9400000
 -24.6120000  15.7920000  48.8590000 -23.4980000  14.8630000  47.8550000
 -25.3730000  13.9790000  48.1590000 -24.8820000  13.0120000  48.7390000
 -26.6390000  14.0160000  47.7500000 -27.0360000  14.9090000  48.0050000
 -27.5450000  12.8860000  47.9150000 -27.4050000  12.6270000  48.9640000
 -28.9990000  13.3480000  47.8010000 -29.2350000  13.8220000  46.8480000
 -29.0950000  14.0520000  48.6270000 -30.0190000  12.3520000  48.2500000
 -29.8350000  11.1900000  48.9440000 -29.0220000  10.9170000  49.6000000
 -31.0160000  10.6200000  49.2420000 -31.0770000  10.1950000  50.1560000
 -32.0470000  11.3710000  48.7640000 -33.4170000  11.2420000  48.9060000
 -33.7630000  10.8440000  49.8480000 -34.2290000  12.2230000  48.3710000
 -35.1310000  12.3930000  48.9410000 -33.6790000  13.3570000  47.7770000
 -34.2310000  14.2500000  48.0310000 -32.2990000  13.5290000  47.7000000
 -31.9720000  14.5240000  47.9640000 -31.4520000  12.5100000  48.1580000
 -27.2400000  11.7300000  46.9390000 -27.9930000  11.4800000  45.9910000
 -26.1410000  11.0120000  47.1830000 -25.8360000  10.9800000  48.1460000
 -25.6660000   9.9340000  46.3150000 -26.5820000   9.4760000  45.9400000
 -24.6790000  10.4850000  45.2490000 -25.2600000  11.2470000  44.7300000
 -24.1950000   9.7470000  44.6090000 -23.4690000  11.1450000  45.8470000
 -22.7660000  10.5470000  46.6780000 -23.0950000  12.3680000  45.4590000
 -22.2510000  12.6080000  45.9590000 -23.3600000  13.1770000  44.9150000
 -25.0350000   8.7990000  47.0950000 -24.7980000   8.9430000  48.3010000
 -24.7440000   7.6580000  46.4260000 -24.5390000   7.5730000  45.4410000
 -24.1580000   6.5000000  47.0580000 -24.3050000   6.4790000  48.1380000
 -24.7790000   5.2260000  46.4710000 -24.4140000   5.0340000  45.4620000
 -24.4140000   4.3930000  47.0720000 -26.2610000   5.0750000  46.7450000
 -26.7630000   5.5790000  47.7600000 -26.9910000   4.2710000  45.9680000
 -27.2180000   3.4160000  46.4560000 -27.1100000   4.1460000  44.9730000
 -22.6350000   6.4610000  46.9060000 -22.0330000   5.4290000  47.2050000
 -21.9930000   7.5680000  46.5000000 -22.2650000   8.3990000  47.0040000
 -20.5620000   7.5890000  46.2240000 -20.3350000   6.7210000  45.6070000
 -20.1230000   8.8460000  45.4130000 -19.0400000   8.9330000  45.5080000
 -20.5540000   9.8190000  45.6510000 -20.5920000   8.8230000  43.6790000
 -19.7030000   7.4340000  47.4900000 -18.5200000   7.1010000  47.3590000
 -20.2420000   7.6720000  48.7110000 -20.8070000   8.4900000  48.8930000
 -19.5510000   7.3520000  49.9480000 -18.6180000   7.9140000  49.9650000
 -20.0690000   7.6850000  50.8470000 -19.2650000   5.8730000  50.1340000
 -18.2650000   5.5320000  50.7720000 -20.1380000   4.9950000  49.6100000
 -21.0680000   5.3230000  49.3940000 -20.0390000   3.5260000  49.7550000
 -19.2250000   3.1270000  50.3610000 -21.2840000   2.9760000  50.5010000
 -22.2670000   3.2190000  50.0970000 -21.2370000   1.8900000  50.4340000
 -21.3040000   3.2220000  52.0130000 -20.4490000   2.7920000  52.5350000
 -22.1710000   2.7120000  52.4340000 -21.5300000   4.6670000  52.4110000
 -22.0770000   5.4680000  51.6500000 -21.1590000   5.0110000  53.6470000
 -20.2540000   5.3800000  53.9020000 -21.8190000   5.0090000  54.4120000
 -19.8620000   2.8430000  48.3980000 -20.7780000   2.1380000  47.9480000
 -18.6900000   3.0020000  47.7460000 -17.5020000   3.7980000  48.1580000
 -17.1050000   3.5980000  49.1530000 -17.5680000   4.8830000  48.0760000
 -16.4250000   3.3790000  47.2100000 -15.8190000   2.5790000  47.6340000
 -15.6910000   4.1690000  47.0490000 -17.1300000   2.9610000  45.9540000
 -16.2850000   2.4770000  45.4630000 -17.3980000   3.8780000  45.4280000
 -18.4800000   2.3400000  46.4490000 -19.3760000   2.5740000  45.8750000
 -18.4220000   0.8210000  46.5290000 -18.2160000   0.2440000  47.6020000
 -18.6280000   0.1750000  45.3720000 -18.9320000   0.6990000  44.5640000
 -18.5300000  -1.2790000  45.2390000 -18.6840000  -1.7540000  46.2080000
 -19.6460000  -1.8020000  44.3280000 -19.3770000  -2.8580000  44.3220000
 -19.6680000  -1.2750000  43.3740000 -21.0770000  -1.6310000  44.8630000
 -21.7670000  -1.2680000  44.1010000 -21.0840000  -0.8100000  45.5800000
 -21.6550000  -2.9400000  45.4600000 -21.3460000  -3.9050000  45.0570000
 -21.3160000  -2.9740000  46.4950000 -23.1920000  -2.9440000  45.5370000
 -23.8080000  -2.3460000  44.8650000 -23.4240000  -2.5150000  46.5110000
 -23.7530000  -4.3260000  45.4610000 -24.2560000  -4.5000000  46.3190000
 -23.1750000  -5.1460000  45.3510000 -24.4550000  -4.3780000  44.7360000
 -17.1530000  -1.6560000  44.6910000 -16.9420000  -1.6060000  43.4920000
 -16.2270000  -2.0380000  45.5660000 -16.4840000  -2.1560000  46.5350000
 -14.8430000  -2.3620000  45.2030000 -14.3800000  -1.5400000  44.6580000
 -13.9200000  -2.3530000  46.4260000 -12.9220000  -2.6300000  46.0870000
 -14.2580000  -3.1240000  47.1180000 -13.5960000  -1.1360000  47.3220000
 -14.3290000  -0.8130000  48.0620000 -13.2430000  -0.2590000  46.7800000
 -12.4540000  -1.5840000  48.2110000 -11.2930000  -1.2650000  47.8620000
 -12.7210000  -2.2350000  49.2540000 -14.7860000  -3.7480000  44.5070000
 -13.9920000  -3.9400000  43.5830000 -15.6370000  -4.7220000  44.9400000
 -15.9990000  -4.7890000  45.8810000 -15.7600000  -6.0190000  44.3060000
 -14.8310000  -6.5380000  44.5410000 -16.5440000  -6.6420000  44.7380000
 -16.1370000  -5.9660000  42.8340000 -15.6030000  -6.7090000  42.0220000
 -17.0960000  -5.1030000  42.5070000 -17.7200000  -4.9500000  43.2870000
 -17.4940000  -4.8220000  41.1190000 -17.7900000  -5.7570000  40.6430000
 -18.7480000  -3.9780000  41.0500000 -18.6440000  -3.0260000  41.5690000
 -18.8570000  -3.9940000  39.9660000 -20.0040000  -4.6570000  41.5930000
 -20.1460000  -5.5910000  41.0490000 -19.9800000  -5.0490000  42.6090000
 -21.2410000  -3.7480000  41.4800000 -21.9680000  -4.3160000  42.0620000
 -21.1700000  -2.7210000  41.8380000 -21.7480000  -3.6600000  40.0430000
 -21.0440000  -3.2690000  39.3080000 -21.7860000  -4.7120000  39.7620000
 -23.2130000  -3.2840000  39.9580000 -23.6240000  -3.9240000  39.2930000
 -23.7050000  -3.5190000  40.8080000 -23.6170000  -2.3860000  39.7330000
 -16.3980000  -4.0590000  40.3530000 -16.1620000  -4.3020000  39.1690000
 -15.7620000  -3.1000000  41.0430000 -15.8660000  -3.0670000  42.0480000
 -14.6950000  -2.3080000  40.4650000 -15.0420000  -1.9020000  39.5150000
 -14.1960000  -1.2010000  41.4340000 -13.4910000  -0.6200000  40.8400000
 -13.5570000  -1.6060000  42.2190000 -14.8450000  -0.0810000  42.1700000
 -14.1040000   0.5140000  42.9600000 -16.1140000   0.2010000  42.1000000
 -16.9040000  -0.2550000  41.6680000 -16.2760000   0.3310000  43.0890000
 -13.4900000  -3.2010000  40.1010000 -12.8280000  -2.9620000  39.0980000
 -13.1610000  -4.1900000  40.9310000 -12.8050000  -3.7480000  41.7670000
 -12.1390000  -5.1870000  40.6750000 -11.1880000  -4.6800000  40.5100000
 -11.9170000  -6.0990000  41.9270000 -12.7360000  -6.7060000  42.3120000
 -11.5130000  -5.5530000  42.7800000 -10.8130000  -7.0600000  41.7230000
  -9.4820000  -6.6930000  41.5090000  -8.9640000  -5.8430000  41.6800000
  -8.7610000  -7.8020000  41.4020000  -7.6930000  -7.9490000  41.3340000
  -9.5280000  -8.8540000  41.5480000 -10.8120000  -8.4460000  41.7690000
 -11.4720000  -9.2430000  42.0770000 -12.4210000  -6.0230000  39.4390000
 -11.5610000  -6.1530000  38.5710000 -13.6320000  -6.5690000  39.3660000
 -14.1140000  -6.6270000  40.2520000 -14.1130000  -7.3550000  38.2080000
 -13.5910000  -8.3110000  38.1890000 -15.6290000  -7.6450000  38.3240000
 -16.3730000  -6.8920000  38.0610000 -15.7970000  -8.5500000  37.7410000
 -15.9530000  -8.0950000  39.6020000 -16.4880000  -7.4450000  40.0640000
 -13.8940000  -6.6770000  36.8590000 -13.5840000  -7.3510000  35.8680000
 -14.0730000  -5.3460000  36.7970000 -14.2770000  -4.7600000  37.5940000
 -13.8740000  -4.5950000  35.5680000 -13.8790000  -5.2080000  34.6660000
 -14.9430000  -3.4900000  35.4650000 -14.8890000  -3.1600000  34.4280000
 -14.7610000  -2.6090000  36.0790000 -16.3920000  -3.9830000  35.6620000
 -17.0620000  -3.2720000  35.1790000 -16.7250000  -4.1360000  36.6890000
 -16.7130000  -5.1940000  34.8300000 -16.8800000  -5.0920000  33.6170000
 -16.8360000  -6.3550000  35.4470000 -17.7660000  -6.5550000  35.7880000
 -16.5240000  -7.1660000  34.9320000 -12.4620000  -4.0490000  35.4460000
 -12.1850000  -3.3370000  34.4740000 -11.5350000  -4.3770000  36.3760000
 -11.7390000  -4.4930000  37.3580000 -10.1540000  -3.9750000  36.2660000
  -9.4280000  -4.4540000  36.9240000  -9.8300000  -4.2830000  35.2720000
  -9.9960000  -2.4740000  36.4180000  -9.1520000  -1.8820000  35.7520000
 -10.7600000  -1.8660000  37.3220000 -10.5770000  -2.3360000  38.1970000
 -10.7800000  -0.4200000  37.4900000 -10.6580000  -0.0320000  36.4790000
 -12.1230000   0.0710000  38.0760000 -12.1160000  -0.3290000  39.0900000
 -12.3410000   1.1340000  37.9770000 -13.6220000  -0.3280000  37.1710000
  -9.6340000  -0.0220000  38.4400000  -9.3600000  -0.7310000  39.4240000
  -8.9660000   1.0980000  38.1500000  -8.9470000   1.4450000  37.2020000
  -7.9590000   1.6640000  39.0330000  -7.2420000   0.8990000  39.3330000
  -7.3940000   2.3830000  38.4400000  -8.5480000   2.1630000  40.3560000
  -9.7700000   2.2440000  40.5070000  -7.6860000   2.4520000  41.3400000
  -6.6920000   2.3790000  41.1720000  -8.1370000   2.9120000  42.6660000
  -8.7250000   2.0810000  43.0540000  -6.9480000   3.0720000  43.6190000
  -6.4640000   2.0970000  43.6760000  -6.3070000   3.8000000  43.1220000
  -6.9610000   3.5090000  45.1040000  -7.4630000   2.7800000  45.7400000
  -7.3330000   4.4980000  45.3730000  -5.4880000   3.6220000  45.4730000
  -4.7970000   4.4790000  44.8660000  -5.0220000   2.8760000  46.3670000
  -8.9030000   4.2450000  42.5410000  -8.4560000   5.1610000  41.8290000
 -10.0460000   4.3720000  43.2360000 -10.2260000   3.8280000  44.0680000
 -10.9270000   5.5240000  43.0970000 -11.6350000   5.5560000  43.9250000
 -10.3380000   6.4410000  43.1110000 -11.7950000   5.5040000  41.8490000
 -12.2920000   6.5620000  41.4490000 -11.9970000   4.3230000  41.2520000
 -11.7300000   3.4850000  41.7490000 -12.9590000   4.1280000  40.1820000
 -13.5370000   5.0520000  40.1890000 -12.2710000   3.7550000  38.8400000
 -13.0480000   3.3660000  38.1810000 -11.4170000   3.1050000  39.0300000
 -11.6650000   4.8960000  38.0140000 -10.7770000   5.2740000  38.5210000
 -12.2630000   5.7890000  37.8320000 -11.1270000   4.4250000  36.6720000
 -10.7580000   3.2660000  36.4980000 -10.9900000   5.3770000  35.7410000
 -11.4120000   5.4780000  34.8290000 -10.1130000   5.8780000  35.7520000
 -13.9280000   3.0240000  40.5410000 -13.5770000   2.1890000  41.3290000
 -15.1200000   3.0380000  39.9490000 -15.4730000   3.9170000  39.5980000
 -16.1210000   2.0300000  40.1030000 -15.4270000   1.1890000  40.1120000
 -17.2180000   2.5190000  41.1410000 -18.1300000   1.9250000  41.1970000
 -16.6790000   2.7170000  42.5770000 -16.3900000   3.7640000  42.6700000
 -15.7260000   2.3790000  42.9840000 -17.5680000   2.4740000  43.1600000
 -17.8470000   3.8550000  40.6760000 -17.2440000   4.7600000  40.7510000
 -18.7330000   3.9810000  41.2990000 -18.2370000   3.7680000  39.6620000
 -16.8030000   1.5770000  38.8650000 -16.6590000   2.2400000  37.8390000
 -17.5250000   0.4250000  38.9050000 -17.6360000  -0.2530000  39.6450000
 -18.3100000  -0.0070000  37.7970000 -17.5820000  -0.1210000  36.9940000
 -18.8030000  -1.4350000  38.0160000 -17.9870000  -2.0970000  38.3070000
 -19.1960000  -1.9060000  37.1140000 -19.5230000  -1.3850000  38.8320000
 -19.5160000   0.9550000  37.6800000 -20.3430000   1.0370000  38.5930000
 -19.5750000   1.6790000  36.5820000 -18.6760000   1.6790000  36.1200000
 -20.5870000   2.7300000  36.3700000 -20.5640000   3.3440000  37.2700000
 -20.1770000   3.7100000  35.2410000 -19.2720000   4.2140000  35.5810000
 -20.1710000   3.3810000  34.2020000 -21.2580000   5.0900000  34.9630000
 -21.9920000   2.1330000  36.1160000 -22.3570000   1.8830000  34.9630000
 -22.7670000   1.9080000  37.1870000 -22.5070000   2.3420000  38.0620000
 -24.1440000   1.4000000  37.1100000 -24.4720000   1.3550000  36.0710000
 -24.2930000   0.0190000  37.7920000 -24.0070000   0.1290000  38.8380000
 -25.3420000  -0.2750000  37.7740000 -23.6420000  -1.2130000  37.1620000
 -24.1910000  -2.0920000  37.5000000 -23.8970000  -1.3390000  35.6540000
 -23.5610000  -2.3190000  35.3160000 -24.9790000  -1.4070000  35.5410000
 -23.5460000  -0.6500000  34.8850000 -22.1580000  -1.2980000  37.4710000
 -21.9320000  -0.9440000  38.4770000 -21.6180000  -0.6890000  36.7460000
 -21.9750000  -2.3610000  37.3120000 -25.1030000   2.3720000  37.7910000
 -24.7320000   3.0550000  38.7520000 -26.3590000   2.3980000  37.3140000
 -26.7440000   1.5970000  36.8360000 -27.3280000   3.3890000  37.7470000
 -26.8910000   4.3750000  37.5860000 -28.6640000   3.3000000  36.9450000
 -28.8260000   3.2020000  35.8720000 -29.1320000   2.3530000  37.2130000
 -29.5140000   4.5000000  37.1550000 -29.2700000   5.7120000  36.4590000
 -28.7190000   5.7940000  35.5330000 -30.1170000   6.8040000  36.6540000
 -30.2540000   7.5080000  35.8470000 -31.1950000   6.6950000  37.5390000
 -31.8680000   7.4650000  37.8840000 -31.4680000   5.4840000  38.1310000
 -32.4640000   5.1910000  38.4280000 -30.6290000   4.4160000  37.9890000
 -30.9220000   3.5400000  38.5480000 -27.6630000   3.2150000  39.2440000
 -27.5400000   4.1570000  40.0330000 -28.0590000   1.9820000  39.6420000
 -28.0560000   1.1670000  39.0450000 -28.4520000   1.6980000  41.0230000
 -29.1260000   2.4610000  41.4120000 -29.2090000   0.3580000  41.1170000
 -28.6770000  -0.4950000  40.6970000 -29.3060000   0.1260000  42.1780000
 -30.6430000   0.3930000  40.5360000 -30.6590000   0.5090000  39.4530000
 -31.2850000   1.1320000  41.0150000 -31.3690000  -0.9290000  40.7090000
 -30.7870000  -1.8910000  41.2590000 -32.5380000  -0.9940000  40.2620000
 -27.2620000   1.6930000  41.9900000 -27.4680000   1.5760000  43.2030000
 -26.0270000   1.7880000  41.4750000 -25.8740000   1.3600000  40.5720000
 -24.8370000   1.9400000  42.3070000 -24.9850000   1.3760000  43.2280000
 -23.5770000   1.3780000  41.6010000 -23.0900000   1.8790000  40.7640000
 -22.8370000   1.4640000  42.3960000 -23.6090000  -0.1280000  41.4310000
 -24.6590000  -0.7750000  41.6520000 -22.5440000  -0.6800000  41.0870000
 -24.5740000   3.3610000  42.7720000 -24.1020000   3.5420000  43.8890000
 -24.8630000   4.3470000  41.9200000 -24.9600000   4.0600000  40.9560000
 -24.5960000   5.7690000  42.2240000 -23.8820000   5.8180000  43.0460000
 -23.8910000   6.4610000  41.0490000 -23.4260000   7.3530000  41.4680000
 -22.6510000   5.6800000  40.5930000 -22.7340000   5.1930000  39.6210000
 -22.3560000   4.8770000  41.2690000 -21.8140000   6.3760000  40.6370000
 -24.8330000   6.7190000  39.8340000 -25.4160000   5.8930000  39.4270000
 -24.1810000   6.9670000  38.9960000 -25.4960000   7.5490000  40.0760000
 -25.8320000   6.5670000  42.6610000 -25.7300000   7.4260000  43.5420000
 -26.9990000   6.2790000  42.0760000 -27.2000000   5.2900000  42.0360000
 -28.2300000   7.0100000  42.3150000 -27.9640000   8.0540000  42.4790000
 -29.1230000   7.1250000  41.0720000 -29.4570000   6.1430000  40.7380000
 -30.3890000   7.9170000  41.3890000 -30.9460000   7.1570000  41.9380000
 -30.1840000   8.8400000  41.9310000 -30.9860000   8.1610000  40.5110000
 -28.3560000   7.7830000  39.9320000 -29.0110000   8.3850000  39.3020000
 -28.0360000   6.9410000  39.3170000 -27.6280000   8.5290000  40.2510000
 -28.9840000   6.2600000  43.4380000 -29.3770000   5.1010000  43.2140000
 -29.1970000   6.8720000  44.6170000 -28.7890000   8.2300000  44.9950000
 -29.4770000   9.0040000  44.6580000 -27.7910000   8.4430000  44.6120000
 -28.7430000   8.1800000  46.5340000 -29.0310000   9.1510000  46.9390000
 -27.8750000   7.8800000  47.1210000 -29.7440000   7.1430000  46.9240000
 -30.5680000   7.7010000  47.3690000 -29.4030000   6.4930000  47.7310000
 -29.8800000   6.1880000  45.7210000 -29.4160000   5.2130000  45.8670000
 -31.3390000   5.9090000  45.4400000 -32.0100000   6.6970000  44.7720000
 -31.8440000   4.7850000  45.9640000 -31.2930000   4.2290000  46.6030000
 -33.2180000   4.3810000  45.6920000 -33.3160000   4.5180000  44.6150000
 -33.4200000   2.8610000  45.9240000 -32.9270000   2.5420000  46.8430000
 -34.4710000   2.6130000  46.0710000 -32.6610000   2.0500000  44.8480000
 -31.6430000   2.0460000  45.2370000 -32.6050000   0.9960000  44.5750000
 -33.1920000   2.3870000  43.1970000 -34.8540000   1.7760000  43.2430000
 -35.5400000   1.9700000  44.0680000 -35.0610000   2.4980000  42.4530000
 -34.5590000   0.8240000  42.8010000 -34.2430000   5.2070000  46.4970000
 -35.3950000   5.3080000  46.0800000 -33.8550000   5.7950000  47.6490000
 -33.1240000   5.3630000  48.1960000 -34.7360000   6.7270000  48.3780000
 -35.6860000   6.2340000  48.5860000 -34.2170000   7.0620000  49.8090000
 -34.2880000   6.2380000  50.5180000 -34.7790000   7.8680000  50.2820000
 -32.8020000   7.5700000  49.8610000 -32.3310000   8.2130000  48.9390000
 -32.1060000   7.3100000  50.9700000 -31.5050000   6.5120000  51.1200000
 -32.1640000   7.8730000  51.8060000 -35.0180000   7.9980000  47.5520000
 -36.1690000   8.4380000  47.4920000 -33.9970000   8.5640000  46.8730000
 -33.0380000   8.2550000  46.9490000 -34.1910000   9.6470000  45.9360000
 -34.6800000  10.4620000  46.4690000 -32.8390000  10.1120000  45.3130000
 -32.1630000   9.3070000  45.0270000 -32.3090000  10.7490000  46.0200000
 -32.9960000  10.9170000  44.0490000 -33.1540000  12.3100000  44.0810000
 -32.9100000  12.9030000  44.9500000 -33.3290000  13.0280000  42.8960000
 -33.7970000  14.0010000  42.9050000 -33.2510000  12.3860000  41.6550000
 -33.3610000  13.0800000  40.4990000 -32.4920000  13.3540000  40.1970000
 -33.0870000  10.9870000  41.6290000 -33.2040000  10.3250000  40.7840000
 -32.9200000  10.2850000  42.8070000 -32.4820000   9.3010000  42.7380000
 -35.1400000   9.2410000  44.8210000 -36.0550000   9.9990000  44.4970000
 -34.9380000   8.0490000  44.2350000 -34.2520000   7.3880000  44.5720000
 -35.7660000   7.6060000  43.1430000 -35.6710000   8.3810000  42.3820000
 -35.2440000   6.3130000  42.4940000 -35.0360000   5.4410000  43.1130000
 -36.1050000   5.9900000  41.9100000 -33.9290000   6.5310000  41.7170000
 -33.6120000   5.6210000  41.2080000 -33.1310000   6.8990000  42.3620000
 -34.0290000   7.7100000  40.4020000 -35.3440000   7.0350000  39.3500000
 -36.1440000   6.3500000  39.6290000 -35.7980000   7.9770000  39.0410000
 -34.8500000   6.5790000  38.4920000 -37.2220000   7.3890000  43.5810000
 -38.1360000   7.6990000  42.8230000 -37.4600000   6.8570000  44.7910000
 -36.8030000   6.9720000  45.5490000 -38.8120000   6.5010000  45.2260000
 -39.4450000   6.2590000  44.3720000 -38.8110000   5.2460000  46.1280000
 -38.1540000   5.2970000  46.9960000 -40.2100000   4.9880000  46.7480000
 -40.6740000   5.8140000  47.2870000 -41.0020000   4.6800000  46.0660000
 -40.1010000   4.2290000  47.5230000 -38.3850000   4.0240000  45.2950000
 -37.3870000   4.0830000  44.8600000 -38.5070000   3.1580000  45.9460000
 -39.0580000   3.9140000  44.4450000 -39.5130000   7.6950000  45.8760000
 -40.6650000   7.9720000  45.5350000 -38.8810000   8.3730000  46.8440000
 -38.4400000   7.7760000  47.5290000 -39.4920000   9.4550000  47.6060000
 -40.5420000   9.2140000  47.7760000 -38.8450000   9.6540000  49.0270000
 -39.2750000  10.6390000  49.2050000 -37.8810000   9.9940000  49.4060000
 -39.1200000   8.5670000  50.0210000 -40.4270000   8.1100000  50.2530000
 -41.2560000   8.8000000  50.1830000 -40.6910000   7.1250000  51.1980000
 -41.6990000   6.9690000  51.5530000 -39.6610000   6.6180000  51.9860000
 -39.9440000   5.7070000  52.9490000 -39.8250000   6.0650000  53.8320000
 -38.3720000   7.1230000  51.8390000 -37.7060000   7.0050000  52.6820000
 -38.1010000   8.0910000  50.8850000 -37.2740000   8.6850000  51.2440000
 -39.5900000  10.7910000  46.9000000 -40.5560000  11.5250000  47.1190000
 -38.5780000  11.1280000  46.1130000 -37.7010000  10.6930000  46.3610000
 -38.5340000  12.4030000  45.4090000 -39.2910000  13.0520000  45.8490000
 -37.1590000  13.0700000  45.6580000 -36.2450000  12.5100000  45.4600000
 -37.1810000  13.3180000  46.7190000 -37.0110000  14.4280000  45.0450000
 -38.0860000  15.3360000  44.9400000 -38.8770000  15.3900000  45.6740000
 -37.9000000  16.5960000  44.4050000 -38.6320000  17.3610000  44.6160000
 -36.6400000  17.0250000  44.0710000 -36.5230000  18.0830000  44.2530000
 -35.5520000  16.1940000  44.2450000 -34.7740000  16.8160000  44.6620000
 -35.7250000  14.9050000  44.7520000 -34.9630000  14.6880000  45.4860000
 -38.8850000  12.2440000  43.9250000 -39.8790000  12.7950000  43.4690000
 -38.0800000  11.4990000  43.1650000 -37.1230000  11.7210000  43.4010000
 -38.2220000  11.3660000  41.7170000 -38.1970000  12.3810000  41.3200000
 -37.0350000  10.5700000  41.1110000 -37.2570000   9.5040000  41.0730000
 -36.0690000  10.8900000  41.5020000 -36.9310000  10.7330000  39.6390000
 -37.7120000  10.1600000  38.8810000 -35.9520000  11.4640000  39.1510000
 -35.0550000  11.6410000  39.5790000 -36.0450000  11.3900000  38.1480000
 -39.5240000  10.7290000  41.2350000 -40.1900000  11.2850000  40.3670000
 -39.8980000   9.5830000  41.7980000 -39.5490000   9.4200000  42.7320000
 -41.0870000   8.8690000  41.3750000 -40.8960000   8.7500000  40.3080000
 -41.2100000   7.4740000  42.0370000 -40.4670000   6.7110000  41.8020000
 -41.2530000   7.6330000  43.1140000 -42.4980000   6.7720000  41.7870000
 -43.0120000   6.6440000  40.4820000 -42.5270000   7.1360000  39.6520000
 -44.2330000   5.9550000  40.2840000 -44.8940000   5.9500000  39.4290000
 -44.9010000   5.4120000  41.3550000 -45.7420000   4.7410000  41.2570000
 -44.4330000   5.5740000  42.6200000 -45.0120000   5.1070000  43.4030000
 -43.2630000   6.2540000  42.8610000 -43.2000000   6.4570000  43.9200000
 -42.3440000   9.7010000  41.7380000 -43.2710000   9.8270000  40.9330000
 -42.3590000  10.2780000  42.9650000 -41.6930000  10.0570000  43.6910000
 -43.4380000  11.0830000  43.4800000 -44.2920000  10.4070000  43.5190000
 -43.1830000  11.4060000  44.9750000 -42.2350000  11.8410000  45.2910000
 -43.3240000  10.4900000  45.5480000 -44.1900000  12.3250000  45.5740000
 -45.5290000  11.9080000  45.7360000 -45.7300000  10.9150000  46.1110000
 -46.4730000  12.7570000  46.3080000 -47.4270000  12.4000000  46.6670000
 -46.0800000  13.9810000  46.8140000 -46.7860000  14.5720000  47.3790000
 -44.7600000  14.3760000  46.7470000 -44.4730000  15.2320000  47.3400000
 -43.8140000  13.5800000  46.1280000 -42.8470000  14.0470000  46.2410000
 -43.6280000  12.3870000  42.6660000 -44.7170000  12.6870000  42.1720000
 -42.5560000  13.1930000  42.5680000 -42.1590000  13.4170000  43.4690000
 -42.5360000  14.4540000  41.8640000 -43.3540000  15.0780000  42.2250000
 -41.2560000  15.2560000  42.1980000 -41.6920000  16.2090000  42.5000000
 -40.5890000  15.0590000  43.0370000 -40.6780000  15.5270000  41.3150000
 -42.6990000  14.3450000  40.3500000 -43.4500000  15.1110000  39.7520000
 -41.9670000  13.4290000  39.7330000 -41.1700000  13.1670000  40.2950000
 -41.8270000  13.4060000  38.2630000 -42.0490000  14.3760000  37.8180000
 -40.3620000  13.2030000  37.8890000 -40.2430000  13.4820000  36.8420000
 -39.9750000  12.1960000  38.0450000 -39.1800000  14.2790000  38.7730000
 -39.2020000  15.0780000  39.8440000 -42.7110000  12.4040000  37.5240000
 -42.9140000  12.5640000  36.3250000 -43.2310000  11.3880000  38.2010000
 -42.7300000  11.1480000  39.0440000 -44.1120000  10.4110000  37.5210000
 -44.2680000  10.6950000  36.4800000 -43.5230000   9.0020000  37.5590000
 -43.6500000   8.6670000  38.5880000 -44.3590000   7.9910000  36.7540000
 -43.9910000   8.0710000  35.7310000 -45.4370000   8.1250000  36.6660000
 -44.2250000   6.9890000  37.1620000 -42.0480000   9.0340000  37.0020000
 -41.8120000   8.1740000  36.3750000 -41.7910000   9.8980000  36.3910000
 -41.2990000   9.0560000  37.7950000 -45.5100000  10.3850000  38.1030000
 -46.4790000  10.5380000  37.3630000 -45.6270000  10.2190000  39.4180000
 -44.9940000  10.8080000  39.9400000 -46.8940000   9.9370000  40.0800000
 -47.3710000   9.1380000  39.5130000 -46.6350000   9.4950000  41.5450000
 -46.3250000  10.3110000  42.1980000 -45.8990000   8.6900000  41.5320000
 -47.8190000   8.9540000  42.3420000 -48.6820000   9.6090000  42.4650000
 -48.3450000   7.6280000  41.7550000 -48.2620000   6.8180000  42.4790000
 -47.9650000   7.2070000  40.8240000 -49.4190000   7.7190000  41.5900000
 -47.3820000   8.8050000  43.8180000 -46.5190000   8.1990000  44.0980000
 -47.3610000   9.7640000  44.3340000 -48.1910000   8.2880000  44.3340000
 -47.7930000  11.1700000  40.0740000 -48.9630000  11.0810000  39.6930000
 -47.2520000  12.3340000  40.5060000 -46.3770000  12.4050000  41.0050000
 -47.9980000  13.5870000  40.5200000 -48.9190000  13.4690000  41.0900000
 -47.2400000  14.7510000  41.2930000 -46.1840000  15.0240000  41.2950000
 -47.7880000  16.1130000  40.8930000 -47.8040000  16.7870000  41.7500000
 -48.8570000  16.0330000  40.6960000 -47.1560000  16.6760000  40.2060000
 -47.3170000  14.5120000  42.7910000 -48.3530000  14.4350000  43.1220000
 -46.8280000  13.6400000  43.2240000 -46.9610000  15.3960000  43.3200000
 -48.4580000  13.9390000  39.0990000 -49.6680000  14.0650000  38.8820000
 -47.5300000  14.0350000  38.1250000 -46.0760000  14.2250000  38.2870000
 -45.9980000  14.5670000  39.3190000 -45.1950000  13.5970000  38.4260000
 -45.6020000  14.6860000  36.9020000 -45.7300000  15.7630000  37.0100000
 -44.5600000  14.6580000  36.5820000 -46.6160000  14.0730000  35.9660000
 -45.8400000  13.5200000  35.4360000 -47.1290000  14.0370000  35.0040000
 -47.9160000  14.2580000  36.7560000 -48.2160000  15.3060000  36.7620000
 -49.0210000  13.3480000  36.2270000 -49.9800000  13.8170000  35.6230000
 -48.8600000  12.0480000  36.4570000 -47.9140000  11.7780000  36.6830000
 -49.8740000  11.0560000  36.0720000 -49.9590000  11.1480000  34.9890000
 -49.4470000   9.6200000  36.4830000 -49.3150000   9.5790000  37.5650000
 -48.5270000   9.3280000  35.9780000 -50.4320000   8.4760000  36.2770000
 -51.2110000   8.5230000  37.0390000 -51.0560000   8.3870000  34.8720000
 -50.6450000   7.5920000  34.2500000 -52.0710000   8.0630000  35.1020000
 -51.0760000   9.2700000  34.2330000 -49.7290000   7.1540000  36.5780000
 -49.4260000   7.1560000  37.6250000 -48.9090000   6.9190000  35.8990000
 -50.5050000   6.3880000  36.5790000 -51.2450000  11.3630000  36.6890000
 -52.2560000  11.3350000  35.9840000 -51.2880000  11.6550000  38.0010000
 -50.4480000  11.8860000  38.5120000 -52.5350000  11.9870000  38.6800000
 -53.2730000  11.2070000  38.4930000 -52.3100000  12.1100000  40.2090000
 -53.2880000  12.4110000  40.5860000 -51.7010000  12.9080000  40.6340000
 -51.9770000  10.7680000  40.8810000 -51.3640000  10.0660000  40.3160000
 -51.2430000  11.0340000  42.2200000 -50.2380000  11.4560000  42.2270000
 -51.2580000  10.1180000  42.8100000 -51.8220000  11.7130000  42.8460000
 -53.2660000   9.9370000  41.1150000 -54.0750000   9.9410000  40.3850000
 -53.7410000  10.1960000  42.0620000 -53.0370000   8.8760000  41.2110000
 -53.1600000  13.2700000  38.1320000 -54.3710000  13.3270000  37.8890000
 -52.3420000  14.3150000  37.9560000 -51.7200000  14.4930000  38.7330000
 -52.7870000  15.5540000  37.3610000 -53.6400000  15.8960000  37.9470000
 -51.6540000  16.6070000  37.3500000 -52.0450000  17.4240000  36.7440000
 -50.7330000  16.2210000  36.9130000 -51.2490000  17.2170000  38.7220000
 -51.0730000  16.5970000  39.6010000 -49.9690000  18.0460000  38.5390000
 -50.1450000  18.7450000  37.7220000 -48.9880000  17.5750000  38.4630000
 -49.8760000  18.7080000  39.4000000 -52.3850000  18.0610000  39.3220000
 -52.9210000  18.7080000  38.6290000 -52.0350000  18.7530000  40.0880000
 -53.1350000  17.4590000  39.8360000 -53.3220000  15.3620000  35.9540000
 -54.3890000  15.8800000  35.6450000 -52.5780000  14.6510000  35.1090000
 -51.5900000  14.7700000  35.2810000 -52.9720000  14.3650000  33.7240000
 -53.0750000  15.3350000  33.2360000 -51.8890000  13.5820000  32.9610000
 -51.7340000  12.6630000  33.5270000 -52.1510000  13.1830000  31.9800000
 -50.7330000  14.4520000  32.3990000 -51.0540000  15.1680000  31.6420000
 -49.9720000  14.7890000  33.1020000 -49.6960000  13.5790000  31.2950000
 -48.9160000  12.4570000  32.3920000 -48.3450000  12.1580000  31.5130000
 -48.2190000  12.9560000  33.0660000 -49.6140000  11.6450000  32.5930000
 -54.2640000  13.5560000  33.6550000 -55.1420000  13.8680000  32.8540000
 -54.3910000  12.5240000  34.5040000 -53.8900000  12.5810000  35.3790000
 -55.6000000  11.7070000  34.6010000 -55.9620000  11.2890000  33.6610000
 -55.3730000  10.6240000  35.6960000 -54.4620000  10.0610000  35.4920000
 -55.4280000  11.0780000  36.6850000 -56.4250000   9.5530000  35.9220000
 -57.4120000   9.9290000  36.1900000 -56.6160000   8.6240000  34.7080000
 -56.2930000   8.9150000  33.7080000 -57.6910000   8.6110000  34.5300000
 -56.3660000   7.5760000  34.8730000 -56.0270000   8.7510000  37.1860000
 -54.9950000   8.6580000  37.5260000 -56.5960000   9.1580000  38.0220000
 -56.3690000   7.7190000  37.1090000 -56.7860000  12.5890000  34.9500000
 -57.8320000  12.5040000  34.2740000 -56.6580000  13.4580000  35.9940000
 -55.8660000  13.8090000  36.5130000 -57.6790000  14.3430000  36.3610000
 -58.4330000  14.7590000  37.0290000 -57.8020000  13.7170000  37.2450000
 -58.1210000  15.3520000  35.3450000 -59.2920000  15.6510000  35.1660000
 -57.1100000  15.9330000  34.7110000 -56.6190000  16.3230000  35.5030000
 -57.2630000  16.9170000  33.6450000 -57.8900000  17.6830000  34.1000000
 -55.8960000  17.5150000  33.1970000 -55.0910000  16.7800000  33.1910000
 -55.9380000  18.0990000  31.7820000 -55.7860000  17.3510000  31.0040000
 -56.8590000  18.6740000  31.6860000 -55.0630000  18.7470000  31.7190000
 -55.4300000  18.5890000  34.2150000 -55.5590000  18.3050000  35.2590000
 -54.3620000  18.7960000  34.1380000 -55.9490000  19.5480000  34.2230000
 -57.9890000  16.3400000  32.4450000 -58.9100000  16.9660000  31.9250000
 -57.5540000  15.1700000  31.9840000 -56.7530000  14.7640000  32.4460000
 -58.1530000  14.5770000  30.7670000 -58.2700000  15.3510000  30.0090000
 -57.2320000  13.5370000  30.1150000 -57.0080000  12.8380000  30.9210000
 -57.6530000  12.8680000  29.3640000 -56.1010000  14.1980000  29.3260000
 -56.3510000  14.8660000  28.0830000 -57.3030000  15.1060000  27.6330000
 -55.2810000  15.4090000  27.3660000 -55.2350000  15.4580000  26.2880000
 -53.9960000  15.4030000  27.8620000 -52.9800000  15.9660000  27.1630000
 -52.3320000  16.3430000  27.7630000 -53.7370000  14.7380000  29.0520000
 -52.7250000  14.4540000  29.3000000 -54.7660000  14.1520000  29.7770000
 -54.4240000  13.5860000  30.6310000 -59.5550000  14.0570000  31.0590000
 -60.4200000  14.1570000  30.1900000 -59.8380000  13.5820000  32.2860000
 -59.1470000  13.5150000  33.0190000 -61.1900000  13.1610000  32.6190000
 -61.4120000  12.4140000  31.8560000 -61.2380000  12.3760000  33.9400000
 -60.5130000  11.5770000  33.7870000 -60.9550000  12.9040000  34.8510000
 -62.6010000  11.6980000  34.1990000 -63.2600000  11.6320000  33.3340000
 -62.4430000  10.1960000  34.5750000 -63.1900000   9.5980000  34.0530000
 -62.6080000  10.0110000  35.6370000 -61.5170000   9.6560000  34.3790000
 -63.4050000  12.4540000  35.2890000 -64.3730000  11.9620000  35.3810000
 -63.5410000  13.5340000  35.2340000 -62.9450000  12.3240000  36.2690000
 -62.1680000  14.3490000  32.6520000 -63.3380000  14.1870000  32.3400000
 -61.6940000  15.5390000  33.0560000 -61.0850000  15.4520000  33.8560000
 -62.4800000  16.7780000  33.0430000 -63.3600000  16.5510000  33.6450000
 -61.7880000  17.8670000  33.8730000 -61.6640000  17.5120000  34.8960000
 -60.7880000  18.0430000  33.4770000 -62.5880000  19.1750000  34.0790000
 -63.1240000  19.0080000  35.0130000 -61.9800000  20.0430000  34.3340000
 -63.5350000  19.7030000  32.9860000 -62.8000000  20.1270000  32.3010000
 -64.4260000  19.1750000  32.6490000 -64.4190000  20.7490000  33.4050000
 -64.3160000  21.6780000  33.0220000 -65.3520000  20.5880000  34.3340000
 -65.4980000  19.4320000  35.0040000 -65.7150000  19.5190000  35.9870000
 -65.7720000  18.5070000  34.7060000 -66.1090000  21.6410000  34.6680000
 -66.4180000  21.8380000  35.6090000 -66.5700000  22.2720000  34.0280000
 -62.7250000  17.2910000  31.6110000 -63.7890000  17.7970000  31.2800000
 -61.7380000  17.1370000  30.7270000 -60.8580000  16.7630000  31.0510000
 -61.8900000  17.4850000  29.3050000 -62.4030000  18.4460000  29.2480000
 -60.5180000  17.4620000  28.5570000 -60.0680000  16.4730000  28.6410000
 -60.7010000  17.5990000  27.0320000 -61.1050000  18.5560000  26.7020000
 -59.8130000  17.4100000  26.4290000 -61.4560000  16.8700000  26.7360000
 -59.6100000  18.5980000  29.1010000 -59.5960000  18.6470000  30.1900000
 -59.9490000  19.6070000  28.8660000 -58.1670000  18.4700000  28.6910000
 -58.0010000  17.9150000  27.7670000 -57.7600000  19.4660000  28.8640000
 -57.6910000  17.7660000  29.3740000 -62.8610000  16.5340000  28.6210000
 -63.6650000  16.9780000  27.7930000 -62.8030000  15.2300000  28.9510000
 -62.3580000  14.9060000  29.7980000 -63.7470000  14.2560000  28.4490000
 -63.6820000  14.1910000  27.3620000 -63.4400000  12.8220000  28.9790000
 -62.6030000  12.3810000  28.4360000 -63.2300000  12.5920000  30.0230000
 -64.5800000  11.9000000  28.7670000 -64.8970000  11.4580000  27.4630000
 -64.4500000  11.8270000  26.5520000 -65.9850000  10.6040000  27.2840000
 -66.6090000  10.6430000  26.4040000 -66.7050000  10.1500000  28.3680000
 -67.2000000   9.1900000  28.3570000 -66.4250000  10.5960000  29.6270000
 -66.7230000   9.9310000  30.4240000 -65.3810000  11.4580000  29.8540000
 -65.1110000  11.3880000  30.8970000 -65.1830000  14.6120000  28.8470000
 -66.0850000  14.5430000  28.0100000 -65.4030000  14.9580000  30.1330000
 -64.6420000  15.0190000  30.7950000 -66.7240000  15.3270000  30.6470000
 -67.4300000  14.5240000  30.4340000 -66.6570000  15.6590000  32.1770000
 -66.1120000  16.5430000  32.5070000 -67.6920000  15.9320000  32.3780000
 -66.3440000  14.5440000  33.2020000 -65.3410000  14.1200000  33.2660000
 -66.5630000  15.0910000  34.6360000 -65.6830000  15.4450000  35.1740000
 -67.3240000  15.8680000  34.7080000 -66.9820000  14.3110000  35.2730000
 -67.1820000  13.2820000  32.9720000 -68.1710000  13.4250000  33.4080000
 -66.7750000  12.4590000  33.5590000 -67.2550000  12.8330000  31.9810000
 -67.3320000  16.5240000  29.9160000 -68.5410000  16.5510000  29.6570000
 -66.4980000  17.5240000  29.6080000 -65.7170000  17.6910000  30.2270000
 -66.9240000  18.6550000  28.8170000 -67.7790000  19.0750000  29.3470000
 -65.8420000  19.7190000  28.7760000 -66.4370000  20.5800000  29.0800000
 -65.0870000  19.6640000  29.5590000 -65.5330000  19.8470000  27.7380000
 -67.3250000  18.2570000  27.3860000 -68.3040000  18.7610000  26.8350000
 -66.5520000  17.3480000  26.7750000 -65.5860000  17.2710000  27.0580000
 -66.8820000  16.7820000  25.4710000 -67.1670000  17.4970000  24.6990000
 -65.7370000  15.9020000  24.9590000 -65.2100000  15.2310000  25.6370000
 -65.2020000  16.4060000  24.1540000 -66.2760000  15.1570000  24.3730000
 -68.1740000  16.0000000  25.4710000 -68.9350000  16.1190000  24.4990000
 -68.4570000  15.2000000  26.5150000 -67.9570000  15.1770000  27.3920000
 -69.6750000  14.4390000  26.5210000 -69.7680000  14.1620000  25.4710000
 -69.6090000  13.2770000  27.5470000 -70.0810000  13.6790000  28.4440000
 -68.5880000  12.9290000  27.7000000 -70.4710000  12.0940000  27.1500000
 -70.0190000  11.9110000  26.1750000 -71.5140000  12.3910000  27.2630000
 -70.4190000  10.9070000  28.1130000 -69.3770000  10.5910000  28.0850000
 -70.8440000   9.9240000  27.9100000 -71.3390000  11.1220000  29.2820000
 -72.3010000  10.8200000  29.2190000 -71.0720000  11.6990000  30.4310000
 -69.8810000  12.1540000  30.7090000 -69.9110000  13.0840000  31.1010000
 -69.3570000  11.4280000  31.1770000 -72.0190000  11.7920000  31.3570000
 -72.2090000  11.0550000  32.0210000 -72.6870000  12.5420000  31.4620000
 -70.8870000  15.3200000  26.7960000 -71.9890000  15.0120000  26.3360000
 -70.6920000  16.4400000  27.5290000 -69.8520000  16.5730000  28.0750000
 -71.7320000  17.4420000  27.7130000 -72.5850000  16.8410000  28.0290000
 -71.2520000  18.5470000  28.6850000 -70.2460000  18.8600000  28.4060000
 -71.6520000  19.5600000  28.6610000 -71.9920000  18.1410000  30.0040000
 -71.6410000  17.1690000  30.3500000 -73.0700000  18.1110000  29.8450000
 -71.9470000  19.0300000  31.2420000 -72.1570000  20.0850000  31.0660000
 -70.9560000  19.0560000  31.6950000 -72.8350000  18.4360000  32.2700000
 -72.4320000  17.6840000  32.8110000 -73.9640000  18.9660000  32.7570000
 -74.4500000  20.1650000  32.3770000 -75.1020000  20.6240000  32.9970000
 -74.3660000  20.7290000  31.5440000 -74.6480000  18.2950000  33.7090000
 -74.5370000  17.3250000  33.9660000 -75.3900000  18.6850000  34.2720000
 -72.1620000  18.0610000  26.4220000 -73.3200000  18.2630000  26.3040000
 -71.2790000  18.3500000  25.4760000 -70.3440000  18.6560000  25.7030000
 -71.6470000  18.4250000  24.1280000 -72.1830000  19.3400000  24.3820000
 -70.6460000  18.9490000  23.1480000 -69.9850000  18.1110000  23.3700000
 -70.3490000  18.7720000  22.1140000 -70.6970000  20.4930000  22.9650000
 -71.6080000  21.0350000  23.2200000 -70.7500000  20.7590000  21.9090000
 -69.8450000  21.2370000  23.9480000 -69.7640000  20.8750000  25.1120000
 -69.2950000  22.3490000  23.5350000 -70.0230000  22.9420000  23.1620000
 -68.8340000  22.8720000  24.2650000 -72.2550000  17.1250000  23.6130000
 -71.9530000  15.8750000  23.5150000 -73.1020000  17.9600000  22.8610000
 -72.5180000  18.5800000  22.3180000 -74.4940000  17.9200000  22.0520000
 -74.3680000  17.3310000  22.9610000 -74.9060000  18.9220000  22.8470000
 -74.4040000  19.7780000  22.3950000 -75.9820000  19.0450000  22.7250000
 -74.9500000  18.8640000  24.2880000 -74.1450000  19.5280000  24.6030000
 -75.9000000  19.9090000  24.8430000 -76.9620000  19.6670000  24.8080000
 -75.7670000  20.0570000  25.9150000 -75.7820000  20.9180000  24.4490000
 -75.1830000  17.4400000  24.9440000 -76.1010000  16.9550000  24.6120000
 -75.5030000  17.7550000  25.9370000 -74.5160000  16.6120000  25.1840000
 -73.8380000  16.9600000  20.8430000 -72.5970000  17.1940000  20.8200000
 -75.0550000  16.6650000  21.2630000 -74.9850000  16.0180000  22.0350000
 -76.3370000  16.2570000  20.9600000 -76.3550000  15.1730000  20.8430000
 -76.2270000  17.3690000  19.9150000 -76.9690000  17.3180000  19.1190000
 -75.4710000  16.9230000  19.2690000 -76.1070000  18.9720000  20.2450000
 -75.4960000  18.9760000  19.3430000 -75.3310000  19.6870000  20.5180000
 -77.2000000  19.8140000  20.9990000 -76.8730000  20.8540000  21.0040000
 -77.6490000  19.8420000  21.9920000 -78.2480000  19.5720000  20.0520000
 -78.6220000  18.5960000  19.7410000 -78.9660000  20.3060000  20.4190000
 -77.8240000  19.9790000  18.7450000 -78.5180000  20.6720000  18.5000000
 -77.8920000  19.3280000  17.9760000 -76.9550000  20.4730000  18.5980000
 -77.6830000  16.5880000  21.5850000 -77.2560000  17.5300000  22.0580000
 -78.6900000  17.3680000  22.1330000 -78.5100000  17.2730000  23.1220000
 -80.2300000  17.4170000  22.3850000 -80.4060000  17.4340000  23.4610000
 -80.0840000  18.0880000  20.9920000 -80.4410000  18.9940000  21.4830000
 -80.7350000  18.3410000  20.1550000 -80.1810000  16.4990000  20.4630000
 -80.4950000  15.7830000  21.2220000 -79.3390000  15.8490000  20.6990000
 -79.8600000  15.8020000  19.2370000 -79.4620000  16.2680000  18.1940000
 -80.0020000  14.4860000  19.3790000 -80.8690000  14.0560000  19.6700000
 -79.1450000  13.9710000  19.2380000 -81.8090000  17.4000000  22.1290000
 -82.5340000  17.9540000  22.9060000 -82.5100000  16.7220000  21.2620000
 -82.2760000  15.8290000  20.8520000 -83.9030000  16.7620000  20.8490000
 -84.1100000  17.8050000  21.0910000 -84.3940000  15.5250000  21.7290000
 -85.2450000  15.5640000  22.4080000 -83.6620000  15.5440000  22.5370000
 -84.4530000  14.0480000  21.3010000 -84.6890000  13.5450000  22.2380000
 -84.9670000  13.8120000  20.3690000 -83.1530000  12.9590000  20.9480000
 -84.3550000  11.5900000  20.7560000 -83.7460000  10.9020000  21.3420000
 -84.5150000  11.5310000  19.6790000 -85.3510000  11.4890000  21.1850000
 -84.2780000  16.1160000  19.3450000 -83.2130000  16.7520000  19.1280000
 -85.5530000  16.3600000  19.8740000 -86.0900000  15.9390000  20.6190000
 -86.6490000  16.1270000  18.9890000 -86.9090000  15.1020000  19.2560000
 -86.3580000  17.5820000  19.5660000 -86.6680000  18.4900000  19.0500000
 -85.9290000  17.7830000  18.5850000 -87.5550000  17.8870000  20.2230000
 -88.1050000  18.8250000  20.1550000 -86.7980000  18.3930000  20.8230000
 -88.8450000  17.0610000  20.5420000 -88.9810000  16.0810000  21.3260000
 -89.8390000  17.5200000  19.8960000 -87.4910000  16.4230000  17.7100000
 -87.8680000  17.4990000  17.1370000 -87.5960000  15.1470000  17.2600000
 -86.8850000  14.4330000  17.3390000 -88.6310000  14.6950000  16.3180000
 -88.6980000  13.6140000  16.4450000 -88.0130000  14.5130000  14.9050000
 -86.9790000  14.1690000  14.8580000 -88.0260000  15.4940000  14.4290000
 -88.8290000  13.7990000  14.0050000 -88.3660000  13.0320000  13.6610000
 -90.1770000  14.8600000  16.6500000 -89.8070000  15.1380000  17.7550000
 -91.1030000  15.2000000  17.5610000 -90.9170000  16.1900000  17.6290000
 -92.4970000  15.2850000  18.0180000 -92.2020000  15.1570000  19.0600000
 -93.1020000  16.6800000  18.0750000 -93.0520000  17.1000000  19.0800000
 -92.6660000  17.4210000  17.4050000 -94.4770000  16.4840000  17.4400000
 -94.9500000  16.3980000  18.4180000 -95.0280000  15.6350000  17.0360000
 -94.6800000  17.0240000  16.0450000 -95.4910000  17.9050000  15.8710000
 -93.9530000  16.4930000  15.0230000 -93.1720000  16.9870000  14.6140000
 -94.3490000  15.8720000  14.3320000 -93.4940000  14.1630000  18.3390000
 -94.5900000  14.3670000  18.8310000 -93.1870000  12.8930000  18.2970000
 -91.9860000  12.6620000  17.6320000 -91.5040000  12.2930000  18.5370000
 -91.1960000  12.1880000  17.0500000 -92.9830000  11.9870000  16.4970000
 -92.5550000  11.3930000  15.6890000 -93.2640000  12.8220000  15.8550000
 -94.4450000  11.7170000  17.0610000 -94.9120000  10.9080000  16.5000000
 -95.2370000  12.4600000  16.9590000 -94.0520000  11.7590000  18.5300000
 -94.8330000  11.9110000  19.2750000 -93.2050000  10.4480000  18.7300000
 -92.0440000  10.1350000  18.4130000 -93.8070000   9.4390000  19.2360000
 -94.8160000   9.4630000  19.2810000 -93.1290000   8.1580000  19.4080000
 -93.9860000   7.5350000  19.6640000 -92.3450000   7.8410000  20.7390000
 -91.2980000   7.7570000  20.4470000 -92.5900000   6.8480000  21.1140000
 -92.4360000   8.7420000  21.9610000 -91.9220000   8.2590000  22.7920000
 -93.9190000   8.9710000  22.3070000 -93.8770000   9.3300000  23.3350000
 -94.3960000   7.9910000  22.3510000 -94.6690000   9.6100000  21.8400000
 -91.9630000  10.1560000  21.6480000 -92.6770000  10.9480000  21.8750000
 -91.3820000  10.3020000  20.7370000 -91.1480000  10.1760000  22.3730000
 -92.9390000   7.1910000  18.2660000 -92.4070000   6.1790000  18.7570000
 -93.3990000   7.1850000  16.9660000 -94.0830000   8.0890000  16.0550000
 -94.7510000   7.5830000  15.3570000 -94.8410000   8.6520000  16.5990000
 -92.8990000   8.5990000  15.2260000 -92.1200000   9.2660000  15.5950000
 -93.1440000   8.8640000  14.1970000 -92.2280000   7.3190000  15.1190000
 -91.1700000   7.5780000  15.0780000 -92.2840000   6.7060000  14.2190000
 -92.8650000   6.1500000  16.0810000 -93.5410000   5.3110000  15.9180000
 -91.4270000   5.5440000  16.1370000 -91.0270000   6.3590000  16.9210000
 -90.1240000   5.5390000  16.4680000 -89.7820000   5.9160000  17.3410000
 -89.0940000   4.5980000  16.1750000 -89.0760000   3.8840000  16.9990000
 -89.3410000   4.1160000  15.2300000 -87.6350000   5.0290000  15.9650000
 -86.7940000   4.1180000  15.8520000 -87.2890000   6.3400000  15.9230000
 -87.8740000   7.0730000  16.2970000 -85.9250000   6.7970000  15.6180000
 -85.4170000   5.8390000  15.7230000 -85.8280000   7.0380000  14.1270000
 -86.0570000   6.0810000  13.6580000 -84.8750000   7.2840000  13.6580000
 -86.7450000   8.2440000  13.7980000 -86.3950000   8.9230000  14.5740000
 -87.8180000   8.1770000  13.9760000 -86.7860000   8.6300000  12.2980000
 -87.1380000   7.4240000  12.1550000 -86.4730000   9.7440000  12.7850000
 -84.7350000   7.3300000  16.4390000 -83.7260000   7.5340000  15.7490000
 -84.6370000   7.4960000  17.7750000 -85.4530000   7.3910000  18.3600000
 -83.3180000   7.9570000  18.2600000 -82.7440000   7.0840000  17.9480000
 -83.1520000   7.9110000  19.7800000 -84.0710000   8.3410000  20.1800000
 -83.2360000   6.8760000  20.1110000 -81.9100000   8.5020000  20.4830000
 -81.7350000   9.5760000  20.4310000 -81.1830000   7.6970000  20.3730000
 -82.0100000   8.4370000  21.9970000 -83.0310000   8.4290000  22.3800000
 -81.6250000   7.5080000  22.4160000 -81.1390000   9.4560000  22.6430000
 -80.1650000   9.2030000  22.7290000 -81.5120000  10.4410000  23.4770000
 -82.7930000  10.5220000  23.8570000 -83.3760000  11.3370000  23.9840000
 -83.0480000   9.8830000  24.5960000 -80.6200000  11.2940000  24.0050000
 -80.8360000  11.8200000  24.8400000 -79.6450000  11.4330000  23.7780000
 -83.2280000   9.2690000  17.4570000 -84.0570000  10.0220000  17.0980000
 -82.3290000  10.0630000  17.5050000 -81.7160000   9.7090000  18.2260000
 -81.3460000  10.8570000  16.6640000 -81.8200000  11.2640000  15.7710000
 -81.0850000  11.7120000  17.9540000 -80.3940000  11.6260000  18.7930000
 -82.0790000  11.9170000  18.3520000 -80.8570000  12.6330000  17.4180000
 -79.8100000  10.6500000  16.2350000 -79.7330000  11.6150000  15.5290000
 -80.0880000   9.5260000  16.7300000 -79.7490000  10.0690000  17.5110000
 -79.8200000   8.2930000  17.5820000 -80.2430000   7.8060000  18.4600000
 -80.2010000   7.0650000  16.7330000 -79.3690000   7.1930000  16.0410000
 -81.0670000   7.1890000  16.0830000 -80.0400000   5.5820000  17.1870000
 -80.6550000   5.2780000  18.0340000 -79.0230000   5.3130000  17.4710000
 -80.6260000   4.6770000  16.0740000 -81.7160000   4.6400000  16.0670000
 -80.3510000   3.6390000  16.2620000 -80.1500000   4.9760000  14.7110000
 -80.8740000   5.1000000  14.0170000 -78.8960000   4.8520000  14.2550000
 -77.9190000   4.3600000  15.0290000 -77.2500000   4.8140000  15.6340000
 -77.5660000   3.4760000  14.6910000 -78.6180000   5.1370000  12.9750000
 -79.1910000   4.9370000  12.1680000 -77.7590000   5.5850000  12.6900000
 -78.4450000   8.7880000  18.2390000 -77.7260000   9.8050000  17.6940000
 -78.1570000   8.3170000  19.4830000 -78.6710000   7.8490000  20.2150000
 -76.8750000   8.7290000  19.7940000 -76.2740000   8.2530000  19.0190000
 -76.1860000   7.5120000  20.3360000 -76.7680000   7.6350000  21.2490000
 -75.3910000   7.0460000  20.9160000 -76.2650000   6.3840000  19.6120000
 -76.3810000   5.6670000  20.2400000 -76.6950000  10.4210000  20.0040000
 -77.6170000  11.1510000  20.3600000 -75.4320000  10.8700000  19.7960000
 -75.0890000  11.8170000  19.8760000 -74.5950000   9.7450000  19.5570000
 -75.1020000   9.4680000  20.4820000 -74.3430000   9.5130000  18.0330000
 -73.5530000  10.2400000  17.8430000 -73.8680000   8.1250000  17.5860000
 -72.8870000   8.3160000  17.1510000 -74.0610000   7.1830000  18.0990000
 -74.4260000   7.9530000  16.6650000 -75.3410000   9.9100000  17.1490000
 -75.2280000  10.7660000  16.7310000 -73.5650000   9.2200000  20.4280000
 -72.5770000   9.8730000  20.5270000 -73.7620000   8.2090000  21.2610000
 -74.4530000   8.5020000  21.9370000 -72.8740000   7.6520000  22.1540000
 -72.4490000   8.5210000  22.6550000 -73.5680000   6.7740000  23.2450000
 -74.6380000   6.8080000  23.4470000 -73.4350000   5.7490000  22.8990000
 -72.8780000   6.8460000  24.6150000 -71.7960000   6.7290000  24.5560000
 -73.3380000   8.0270000  25.4480000 -74.0110000   8.7120000  24.9340000
 -72.4910000   8.3220000  26.0670000 -74.0590000   7.8320000  26.2420000
 -73.1440000   5.5780000  25.4310000 -72.2770000   5.2620000  26.0110000
 -73.9440000   5.6350000  26.1690000 -73.4290000   4.7120000  24.8330000
 -71.7140000   6.9570000  21.4730000 -70.7200000   6.7400000  22.1430000
 -71.7880000   6.6000000  20.1910000 -72.6050000   6.0170000  20.0840000
 -70.5860000   6.2440000  19.3880000 -70.1020000   5.3590000  19.8010000
 -70.9630000   5.8490000  17.9500000 -70.0300000   5.5560000  17.4680000
 -71.3160000   6.6740000  17.3310000 -71.9260000   4.6080000  17.9330000
 -72.9580000   4.6050000  18.2820000 -71.4710000   3.7760000  18.4710000
 -72.1330000   4.0570000  16.5640000 -73.2500000   4.0990000  16.0260000
 -71.1300000   3.4040000  15.9750000 -71.4630000   2.5680000  15.5180000
 -70.1380000   3.5440000  15.8450000 -69.5180000   7.3480000  19.3610000
 -68.3180000   7.0470000  19.4210000 -69.9260000   8.6300000  19.2560000
 -70.7980000   8.8410000  18.7930000 -68.9660000   9.7440000  19.3520000
 -68.1210000   9.3790000  18.7680000 -69.6740000  11.0550000  18.8740000
 -69.5270000  12.1290000  18.9870000 -70.3520000  11.1060000  19.7250000
 -69.6660000  11.3090000  17.3460000 -70.1600000  12.1850000  16.9260000
 -70.1770000  10.4980000  16.8270000 -68.1580000  11.2170000  16.9780000
 -67.5870000  11.9330000  17.5700000 -67.8370000  10.1790000  16.9000000
 -67.7660000  11.5710000  15.5740000 -68.2480000  10.9240000  14.8420000
 -68.0810000  12.5790000  15.3030000 -66.2830000  11.4420000  15.4220000
 -66.1400000  11.2990000  14.4330000 -65.8290000  12.3230000  15.6160000
 -65.7640000  10.6870000  15.8480000 -68.3830000   9.9150000  20.7420000
 -67.1970000  10.2110000  20.8630000 -69.1880000   9.6940000  21.7820000
 -70.1690000   9.5480000  21.5910000 -68.7040000   9.7470000  23.1730000
 -68.2120000  10.7150000  23.2700000 -69.8880000   9.6830000  24.1650000
 -70.3820000   8.7400000  24.3960000 -69.3680000   9.8890000  25.1010000
 -70.8000000  10.9120000  23.8240000 -71.4200000  10.9730000  22.9290000
 -70.1730000  11.7950000  23.7010000 -71.9420000  11.2360000  24.7200000
 -72.7100000  10.3730000  25.0360000 -72.1500000  12.4110000  25.0340000
 -67.6830000   8.6440000  23.5200000 -66.6790000   8.8840000  24.1980000
 -67.9750000   7.4110000  23.0830000 -68.9340000   7.1480000  23.2580000
 -67.0850000   6.2510000  23.2000000 -66.8700000   6.0770000  24.2550000
 -67.7680000   4.9480000  22.6900000 -68.2160000   4.9550000  21.6970000
 -66.7580000   3.7820000  22.5080000 -67.2690000   2.8210000  22.5490000
 -66.2950000   3.7700000  21.5210000 -65.9510000   3.6760000  23.2330000
 -68.9020000   4.5180000  23.6550000 -69.7590000   4.1690000  23.0790000
 -69.2460000   5.1380000  24.4840000 -68.5730000   3.6290000  24.1920000
 -65.7600000   6.4840000  22.4850000 -64.7030000   6.1740000  23.0380000
 -65.8100000   7.0100000  21.2510000 -66.6810000   6.9760000  20.7400000
 -64.6200000   7.4090000  20.5090000 -64.1120000   6.4730000  20.2790000
 -64.9790000   7.9660000  19.1080000 -65.3940000   7.1740000  18.4850000
 -65.6250000   8.8390000  19.0200000 -63.8110000   8.4790000  18.3530000
 -63.2770000   9.7700000  18.4830000 -63.6200000  10.6380000  18.8690000
 -62.2550000   9.8670000  17.6360000 -61.5990000  10.6580000  17.3030000
 -62.1130000   8.7610000  16.9680000 -63.0490000   7.8580000  17.3800000
 -62.9790000   6.8790000  16.9290000 -63.7720000   8.4500000  21.2880000
 -62.5420000   8.3460000  21.3460000 -64.4370000   9.4650000  21.8800000
 -65.4430000   9.5320000  21.8240000 -63.7510000  10.4910000  22.6440000
 -63.0590000  10.8790000  21.8970000 -64.7320000  11.6130000  23.0740000
 -65.0320000  12.0780000  22.1350000 -64.2130000  12.3150000  23.7270000
 -65.6760000  11.4570000  23.5960000 -63.0350000   9.9220000  23.8880000
 -61.8460000  10.1770000  24.1320000 -63.7960000   9.1590000  24.6950000
 -64.7320000   9.4930000  24.8760000 -63.3070000   8.4480000  25.8650000
 -62.9910000   9.1220000  26.6620000 -64.4190000   7.5560000  26.4750000
 -65.3750000   7.9590000  26.8100000 -64.6900000   6.6030000  26.0220000
 -63.9180000   7.2380000  27.3900000 -62.0800000   7.5900000  25.5670000
 -61.1040000   7.6040000  26.3220000 -62.1660000   6.8030000  24.4880000
 -63.0310000   6.2810000  24.4810000 -61.0910000   5.9790000  23.9690000
 -60.9650000   5.1750000  24.6940000 -61.5590000   5.2600000  22.6970000
 -61.9380000   5.9740000  21.9650000 -62.3450000   4.5870000  23.0380000
 -60.5230000   4.3740000  21.9820000 -59.5570000   4.3060000  22.4820000
 -60.8570000   3.3400000  22.0780000 -60.5450000   4.6250000  20.4620000
 -61.5490000   4.4310000  20.0860000 -60.3210000   5.6670000  20.2310000
 -59.5510000   3.7220000  19.6810000 -58.7360000   3.1450000  20.1160000
 -60.1840000   2.8930000  19.3650000 -58.9780000   4.3940000  18.4810000
 -59.5320000   5.1150000  18.0400000 -58.0220000   4.7210000  18.4940000
 -58.9510000   3.6510000  17.7970000 -59.8370000   6.8100000  23.6950000
 -58.7430000   6.4360000  24.1210000 -59.9840000   7.9420000  22.9840000
 -60.8840000   8.2860000  22.6820000 -58.8480000   8.7700000  22.6240000
 -58.1740000   8.1540000  22.0280000 -59.2540000   9.8930000  21.6600000
 -58.2570000  10.3100000  21.5130000 -60.0200000  10.6360000  21.8810000
 -59.6980000   9.3470000  20.4470000 -58.9820000   9.3260000  19.8070000
 -58.1070000   9.3330000  23.8520000 -56.8690000   9.3840000  23.8690000
 -58.8510000   9.7360000  24.9010000 -59.8570000   9.6490000  24.9220000
 -58.2150000  10.2370000  26.1240000 -57.2530000  10.6890000  25.8800000
 -59.1970000  11.1510000  26.8990000 -60.1960000  10.7240000  26.9850000
 -58.8690000  11.0800000  27.9360000 -59.1910000  12.6380000  26.4600000
 -58.3090000  13.0720000  26.9310000 -59.0530000  12.8800000  24.9470000
 -58.0170000  13.1530000  24.7430000 -59.5730000  13.8080000  24.7090000
 -59.2990000  12.0840000  24.2440000 -60.4400000  13.3460000  26.9840000
 -60.2760000  13.3020000  28.0610000 -61.2860000  12.7780000  26.5990000
 -60.5960000  14.3810000  26.6800000 -57.6560000   9.1410000  27.0250000
 -56.6700000   9.3540000  27.7390000 -58.2900000   7.9760000  27.0180000
 -59.1690000   8.1420000  27.4860000 -57.7700000   6.7650000  27.6210000
 -57.6720000   6.8830000  28.7000000 -58.7500000   5.5780000  27.4680000
 -59.5790000   5.6710000  28.1690000 -58.1770000   4.7380000  27.8610000
 -59.1580000   5.1810000  26.5380000 -56.4040000   6.3970000  27.0740000
 -55.5260000   6.0070000  27.8420000 -56.2280000   6.5300000  25.7530000
 -56.9620000   6.9290000  25.1860000 -54.9700000   6.2050000  25.0920000
 -54.7220000   5.1900000  25.4030000 -55.1250000   6.2310000  23.5410000
 -55.4930000   7.1790000  23.1490000 -53.7680000   6.1690000  22.8350000
 -53.2420000   5.2580000  23.1210000 -53.8110000   6.0740000  21.7500000
 -53.3090000   7.1420000  23.0100000 -56.0160000   5.0400000  23.0890000
 -55.3900000   4.1580000  22.9480000 -56.7640000   4.6640000  23.7870000
 -56.7080000   5.2770000  21.7460000 -56.0530000   4.7510000  21.0520000
 -56.7250000   6.2740000  21.3060000 -57.6380000   4.7270000  21.6020000
 -53.8410000   7.1260000  25.5660000 -52.7620000   6.6330000  25.8900000
 -54.0810000   8.4460000  25.6390000 -54.9850000   8.7970000  25.3560000
 -53.0610000   9.3790000  26.1370000 -52.2820000   9.3080000  25.3790000
 -53.6140000  10.8350000  26.3130000 -54.4470000  10.9030000  27.0120000
 -52.5200000  11.7580000  26.9350000 -51.5270000  11.3150000  26.8640000
 -52.4320000  12.7500000  26.4930000 -52.6790000  11.9070000  28.0030000
 -54.0880000  11.4420000  24.9750000 -54.5470000  10.8260000  24.2020000
 -53.1970000  11.8210000  24.4750000 -55.0410000  12.6010000  25.1700000
 -55.0260000  13.0190000  24.1640000 -56.0500000  12.3760000  25.5150000
 -54.5470000  13.3010000  25.8450000 -52.5080000   8.9350000  27.5080000
 -51.2920000   8.7470000  27.6900000 -53.4240000   8.7830000  28.4910000
 -54.4110000   8.6540000  28.3180000 -53.0030000   8.5660000  29.8730000
 -52.1510000   9.2180000  30.0620000 -54.1030000   8.9540000  30.8870000
 -55.0140000   8.3630000  30.7910000 -53.6200000   8.7110000  32.3180000
 -52.8770000   7.9160000  32.3900000 -53.2070000   9.6290000  32.7360000
 -54.3950000   8.1910000  32.8820000 -54.4890000  10.4280000  30.7120000
 -55.1630000  10.5340000  29.8620000 -55.1250000  10.6850000  31.5590000
 -53.6230000  11.0850000  30.6320000 -52.5390000   7.1160000  30.0560000
 -51.5620000   6.8470000  30.7600000 -53.2600000   6.1720000  29.4360000
 -54.2490000   6.2240000  29.6390000 -52.8840000   4.7720000  29.3800000
 -53.0880000   4.3520000  30.3640000 -53.4830000   4.1520000  28.7130000
 -51.4830000   4.5270000  28.8680000 -50.7650000   3.7390000  29.4680000
 -51.0890000   5.1870000  27.7770000 -51.6430000   5.9980000  27.5400000
 -49.7540000   5.0060000  27.2260000 -49.7860000   3.9240000  27.1010000
 -49.5530000   5.6150000  25.8300000 -48.4810000   5.7470000  25.6840000
 -49.9880000   6.6100000  25.7460000 -49.9920000   4.6790000  24.6950000
 -50.9800000   4.2590000  24.8830000 -50.0670000   5.4530000  23.3750000
 -49.1260000   5.6870000  22.8770000 -50.5170000   4.7630000  22.6620000
 -50.7290000   6.3050000  23.5310000 -49.0590000   3.4570000  24.5330000
 -49.6700000   2.6790000  24.0750000 -48.2490000   3.5560000  23.8110000
 -48.6150000   3.0300000  25.4320000 -48.6740000   5.5730000  28.1780000
 -47.6490000   4.9370000  28.4010000 -48.9040000   6.7760000  28.7420000
 -49.2440000   7.4880000  28.1120000 -47.9980000   7.3290000  29.7370000
 -47.0880000   7.4620000  29.1530000 -48.4690000   8.7170000  30.2520000
 -48.5020000   9.4140000  29.4140000 -49.4690000   8.8100000  30.6760000
 -47.5300000   9.3350000  31.2460000 -46.3700000   9.9630000  30.7930000
 -46.0830000   9.8740000  29.7550000 -45.5090000  10.5910000  31.6870000
 -44.7740000  11.2290000  31.2180000 -45.7590000  10.5050000  33.0730000
 -45.0060000  10.5730000  33.8440000 -46.8950000   9.8630000  33.5200000
 -46.8610000   9.5190000  34.5430000 -47.7800000   9.2760000  32.6260000
 -48.4750000   8.5700000  33.0560000 -47.7710000   6.3950000  30.9410000
 -46.6460000   6.2320000  31.4250000 -48.8620000   5.8110000  31.4530000
 -49.6150000   6.4630000  31.6230000 -48.8100000   4.8620000  32.5290000
 -48.2480000   5.3910000  33.2980000 -50.2460000   4.5430000  33.0440000
 -50.4860000   4.9220000  34.0380000 -50.3340000   3.4580000  33.1090000
 -51.1380000   4.7810000  32.4640000 -48.1100000   3.5520000  32.1270000
 -47.3340000   2.9920000  32.9020000 -48.3990000   3.0740000  30.9110000
 -49.0610000   3.5940000  30.3540000 -47.7800000   1.8650000  30.3610000
 -48.0560000   1.0820000  31.0670000 -48.3690000   1.5000000  28.9800000
 -49.3920000   1.1630000  29.1490000 -48.3170000   2.3690000  28.3240000
 -47.6120000   0.4590000  28.1070000 -46.5630000   0.6530000  27.8820000
 -47.6480000  -0.9410000  28.7610000 -48.6540000  -1.2130000  29.0780000
 -47.0500000  -1.2320000  29.6250000 -47.3200000  -1.7060000  28.0570000
 -48.2160000   0.4210000  26.6800000 -47.5570000   0.8090000  25.9030000
 -49.2520000   0.7470000  26.5920000 -48.3140000  -0.6150000  26.3570000
 -46.2620000   2.0330000  30.2040000 -45.5100000   1.0790000  30.4150000
 -45.8120000   3.2340000  29.7990000 -46.3810000   4.0650000  29.8750000
 -44.4120000   3.4830000  29.5460000 -44.0490000   2.6640000  28.9270000
 -44.2280000   4.7130000  28.6350000 -44.7440000   5.6440000  28.8710000
 -43.1670000   4.8120000  28.4030000 -45.0630000   4.6380000  27.0430000
 -45.1750000   3.8280000  25.9860000 -43.6090000   3.6490000  30.8600000
 -42.5360000   3.0580000  31.0220000 -44.1400000   4.4680000  31.7930000
 -44.9090000   5.0720000  31.5390000 -43.3840000   4.9210000  32.9580000
 -42.3190000   4.7870000  32.7670000 -43.6820000   6.4130000  33.2250000
 -44.6750000   6.8630000  33.2350000 -43.3230000   6.4780000  34.2530000
 -43.0320000   7.2890000  32.2280000 -43.6000000   7.9210000  31.1490000
 -44.6400000   7.9360000  30.8580000 -42.6130000   8.6260000  30.4670000
 -42.6370000   9.3630000  29.7770000 -41.4220000   8.4570000  31.0660000
 -40.1680000   8.9610000  30.7290000 -39.9330000   9.4490000  29.7950000
 -39.1130000   8.5710000  31.5420000 -38.1510000   8.3600000  31.0990000
 -39.2890000   7.8000000  32.6730000 -38.4540000   7.6660000  33.3450000
 -40.5300000   7.3040000  33.0120000 -40.6010000   6.9490000  34.0300000
 -41.6360000   7.6040000  32.1900000 -43.5470000   4.1300000  34.2520000
 -42.5930000   4.0170000  35.0260000 -44.7430000   3.6400000  34.5250000
 -45.4910000   4.1080000  34.0340000 -44.9940000   2.8730000  35.7530000
 -44.6180000   3.5200000  36.5450000 -46.4940000   2.5530000  35.9560000
 -46.5370000   2.1360000  36.9620000 -46.8890000   1.7640000  35.3150000
 -47.4370000   3.7810000  36.0680000 -47.4170000   4.5320000  35.2780000
 -48.8900000   3.2600000  36.1410000 -49.1320000   2.4210000  35.4890000
 -49.0660000   2.8710000  37.1440000 -49.7300000   3.9470000  36.0340000
 -47.0620000   4.6050000  37.3100000 -46.9620000   3.9930000  38.2070000
 -46.1880000   5.2330000  37.1350000 -47.8750000   5.2640000  37.6110000
 -44.1800000   1.5900000  35.9480000 -43.7060000   1.3880000  37.0650000
 -44.0320000   0.7140000  34.9320000 -44.6650000   0.7310000  33.5960000
 -45.6530000   0.6240000  33.1480000 -44.7420000   1.8000000  33.3930000
 -44.2770000  -0.6180000  32.9740000 -45.0410000  -1.3500000  33.2350000
 -44.1380000  -0.7680000  31.9040000 -43.0320000  -1.0400000  33.6740000
 -42.2040000  -0.7090000  33.0460000 -42.9600000  -2.1270000  33.7120000
 -43.2270000  -0.5040000  35.0980000 -43.8030000  -1.2460000  35.6510000
 -41.8830000  -0.3080000  35.8030000 -41.6130000  -0.9390000  36.8330000
 -41.0490000   0.5920000  35.2560000 -41.3520000   1.1670000  34.4830000
 -39.7230000   0.8010000  35.8180000 -39.2840000  -0.1950000  35.8830000
 -38.8980000   1.7420000  34.9130000 -38.9010000   1.4120000  33.8750000
 -39.3750000   2.7210000  34.8660000 -37.4990000   2.0920000  35.4380000
 -37.5580000   2.7450000  36.3090000 -36.6560000   0.8560000  35.8020000
 -37.0040000   0.2100000  36.6080000 -35.7460000   1.3090000  36.1950000
 -36.3720000   0.1870000  34.9890000 -36.7690000   2.9630000  34.3940000
 -35.6920000   2.8100000  34.3240000 -37.1940000   3.0540000  33.3950000
 -36.8160000   3.9750000  34.7960000 -39.7870000   1.3740000  37.2350000
 -39.0150000   0.9570000  38.1000000 -40.6820000   2.3420000  37.4880000
 -41.1780000   2.8040000  36.7390000 -40.7690000   2.9570000  38.8220000
 -39.7520000   3.1930000  39.1330000 -41.4210000   4.3230000  38.6980000
 -41.7550000   5.0140000  39.4720000 -42.4230000   4.0500000  38.3650000
 -40.4750000   5.3600000  38.1740000 -39.5750000   6.0760000  38.9910000
 -39.1270000   5.7740000  39.8440000 -38.9040000   6.9160000  38.1830000
 -38.2640000   7.7820000  38.2660000 -39.2720000   6.7450000  36.9530000
 -40.2270000   5.7770000  36.8940000 -40.4650000   5.3910000  35.9140000
 -41.4680000   2.0740000  39.8610000 -41.0910000   2.1190000  41.0280000
 -42.4940000   1.3010000  39.4850000 -43.2740000   1.8990000  39.2550000
 -43.0470000   0.2130000  40.2930000 -43.5030000   0.6260000  41.1920000
 -44.1380000  -0.5980000  39.5310000 -43.8270000  -0.9160000  38.5360000
 -44.4330000  -1.9650000  40.2190000 -44.8180000  -2.6810000  39.4930000
 -43.6030000  -2.4880000  40.6940000 -45.2050000  -1.8980000  40.9860000
 -45.4800000   0.2140000  39.4380000 -45.9600000   0.1490000  40.4140000
 -45.5180000   1.2950000  39.3040000 -46.4620000  -0.3420000  38.3950000
 -47.1110000  -0.9310000  39.0440000 -46.1290000  -1.0310000  37.6190000
 -47.2340000   0.2740000  37.9340000 -41.9350000  -0.7140000  40.7480000
 -41.8130000  -1.0230000  41.9400000 -41.1330000  -1.1640000  39.7770000
 -41.1650000  -0.6990000  38.8810000 -40.0170000  -2.0480000  40.0810000
 -40.4170000  -2.9340000  40.5730000 -39.2970000  -2.5290000  38.8050000
 -38.9930000  -1.7150000  38.1480000 -37.9380000  -3.1850000  39.1160000
 -37.9560000  -4.2200000  38.7730000 -37.5950000  -3.2510000  40.1480000
 -37.1480000  -2.6480000  38.5910000 -40.2190000  -3.5680000  38.0820000
 -40.2140000  -4.5130000  38.6240000 -41.2860000  -3.3490000  38.0690000
 -39.8520000  -3.7880000  36.6160000 -39.6850000  -2.8560000  36.0760000
 -38.9360000  -4.3710000  36.5260000 -40.7090000  -4.2540000  36.1290000
 -39.0660000  -1.3420000  41.0560000 -38.6250000  -1.9640000  42.0280000
 -38.7620000  -0.0400000  40.8570000 -39.1410000   0.5490000  40.1290000
 -37.9140000   0.6850000  41.7490000 -36.9860000   0.1180000  41.6900000
 -37.6440000   2.1430000  41.2690000 -38.2850000   2.8950000  40.8070000
 -37.6450000   2.6740000  42.2210000 -36.5460000   2.2050000  40.2190000
 -35.7510000   1.2940000  40.0540000 -36.4830000   3.3310000  39.5160000
 -35.7500000   3.8720000  39.9520000 -36.3460000   3.3890000  38.5170000
 -38.4440000   0.7190000  43.2010000 -37.6480000   0.6510000  44.1440000
 -39.7700000   0.8580000  43.4130000 -40.3460000   1.4470000  42.8280000
 -40.3860000   0.7480000  44.7390000 -40.1030000   1.4770000  45.4980000
 -41.8730000   1.1130000  44.6480000 -42.3970000   1.3240000  45.5800000
 -42.5650000   0.4360000  44.1480000 -42.3170000   2.7390000  44.0780000
 -42.2530000   4.0080000  43.6660000 -40.1610000  -0.6190000  45.3600000
 -39.8030000  -0.6960000  46.5410000 -40.3680000  -1.6990000  44.5800000
 -41.0010000  -1.6860000  43.7920000 -40.0880000  -3.0560000  44.9990000
 -40.6900000  -3.2920000  45.8770000 -40.4190000  -4.0510000  43.8360000
 -39.7810000  -4.1330000  42.9570000 -40.2500000  -5.0150000  44.3180000
 -41.8900000  -4.2400000  43.5490000 -42.8720000  -4.3460000  44.5890000
 -42.7770000  -4.4380000  45.6600000 -44.2020000  -4.5700000  44.2730000
 -44.9730000  -4.6860000  45.0200000 -44.5960000  -4.7460000  42.9700000
 -45.6420000  -4.9110000  42.7590000 -43.6680000  -4.7490000  41.9550000
 -43.9940000  -5.3810000  41.1420000 -42.3210000  -4.5210000  42.2330000
 -41.7440000  -5.2050000  41.6290000 -38.6550000  -3.2100000  45.4990000
 -38.4240000  -3.6920000  46.6150000 -37.6980000  -2.7300000  44.6950000
 -37.9500000  -2.1650000  43.8970000 -36.2790000  -2.7510000  45.0150000
 -36.0250000  -3.8090000  45.0880000 -35.4310000  -2.0770000  43.8930000
 -35.6870000  -1.0290000  43.7380000 -33.9300000  -2.0770000  44.2550000
 -33.6740000  -2.9860000  44.8000000 -33.2290000  -1.9860000  43.4260000
 -33.6670000  -1.2720000  44.9420000 -35.6330000  -2.7740000  42.6750000
 -35.1120000  -2.3710000  41.9760000 -35.9880000  -2.0110000  46.3210000
 -35.2160000  -2.4980000  47.1510000 -36.5880000  -0.8220000  46.5000000
 -37.3790000  -0.5570000  45.9310000 -36.3160000   0.0050000  47.6690000
 -35.2420000  -0.0270000  47.8490000 -36.8630000   1.4270000  47.4520000
 -37.9470000   1.3870000  47.3420000 -36.4420000   1.8630000  46.5460000
 -36.7100000   2.3310000  48.6530000 -35.4390000   2.7490000  49.1050000
 -34.5580000   2.1280000  49.0440000 -35.3150000   3.5620000  50.2150000
 -34.4180000   3.4660000  50.8090000 -36.4290000   3.9450000  50.9250000
 -36.2880000   4.2310000  51.9570000 -37.6870000   3.5400000  50.5310000
 -38.4870000   3.8370000  51.1930000 -37.8460000   2.7130000  49.4160000
 -38.8530000   2.3540000  49.2640000 -36.9400000  -0.5430000  48.9470000
 -36.2670000  -0.5840000  49.9870000 -38.2300000  -0.9440000  48.9060000
 -38.9320000  -0.5660000  48.2860000 -38.9360000  -1.4210000  50.0730000
 -38.6040000  -0.9180000  50.9810000 -40.4570000  -1.1860000  49.8870000
 -40.9770000  -1.4820000  50.7980000 -40.9240000  -1.8430000  49.1540000
 -40.8170000   0.2750000  49.7990000 -40.5800000   1.1280000  50.9000000
 -40.4180000   0.7890000  51.9130000 -40.9570000   2.4570000  50.8470000
 -41.1860000   2.9230000  51.7940000 -41.5740000   2.9740000  49.7190000
 -42.1890000   3.8520000  49.8500000 -41.8600000   2.1430000  48.6490000
 -42.7550000   2.4350000  48.1190000 -41.5100000   0.7950000  48.6980000
 -42.2680000   0.1710000  48.2480000 -38.6630000  -2.8620000  50.4280000
 -38.9560000  -3.2460000  51.5670000 -38.0840000  -3.6680000  49.5200000
 -37.5540000  -3.3220000  48.7330000 -37.6770000  -5.0190000  49.8290000
 -37.9220000  -5.2910000  50.8560000 -38.4930000  -6.0840000  49.0770000
 -38.4890000  -6.0560000  47.9870000 -39.5400000  -6.1290000  49.3770000
 -38.1360000  -7.7100000  49.7290000 -36.1650000  -5.1620000  49.5580000
 -35.7690000  -5.6900000  48.5070000 -35.3130000  -4.7080000  50.4940000
 -35.6280000  -4.0570000  51.7960000 -36.3070000  -4.4900000  52.5300000
 -35.9710000  -3.0370000  51.6280000 -34.2780000  -3.9240000  52.4870000
 -34.3480000  -3.0140000  53.0830000 -33.8870000  -4.6280000  53.2220000
 -33.2530000  -3.9420000  51.3780000 -32.2520000  -4.2570000  51.6720000
 -33.1160000  -2.9080000  51.0630000 -33.8580000  -4.8500000  50.3050000
 -33.4740000  -4.5280000  49.3370000 -33.3980000  -6.3050000  50.4620000
 -32.3110000  -6.6450000  49.9810000 -34.2060000  -7.1800000  51.0840000
 -35.1770000  -6.9900000  51.2880000 -33.8830000  -8.5740000  51.3370000
 -32.8070000  -8.6940000  51.4630000 -34.6250000  -9.1000000  52.6080000
 -35.4680000  -9.7720000  52.4500000 -33.8700000  -9.6140000  53.2040000
 -35.1620000  -8.1120000  53.6270000 -35.0800000  -6.8780000  53.4670000
 -35.6850000  -8.6130000  54.6510000 -34.2320000  -9.4410000  50.1290000
 -33.5680000 -10.4590000  49.9020000 -35.2730000  -9.0570000  49.3630000
 -35.9950000  -8.4710000  49.7570000 -35.6470000  -9.7010000  48.1180000
 -36.1020000 -10.6510000  48.3950000 -36.7850000  -8.9440000  47.3660000
 -36.9410000  -9.5190000  46.4530000 -36.7770000  -7.8870000  47.1020000
 -38.3730000  -8.9470000  48.1480000 -34.4480000  -9.7920000  47.1620000
 -33.6920000  -8.8210000  47.0360000 -34.2910000 -10.9240000  46.4760000
 -34.4890000 -11.7630000  47.0030000 -33.3690000 -11.0340000  45.3390000
 -32.3630000 -10.8820000  45.7320000 -33.3520000 -12.4570000  44.7560000
 -32.7260000 -12.5590000  43.8690000 -33.0020000 -13.1920000  45.4810000
 -34.6270000 -12.8280000  44.2840000 -35.3280000 -12.4470000  44.8190000
 -33.8350000 -10.0330000  44.2680000 -35.0420000  -9.9460000  43.9840000
 -32.9050000  -9.2770000  43.6860000 -31.9540000  -9.6140000  43.6410000
 -33.2600000  -8.1290000  42.8760000 -33.8850000  -7.5440000  43.5490000
 -32.0210000  -7.2760000  42.5520000 -31.5290000  -6.9910000  43.4820000
 -31.2810000  -7.8310000  41.9760000 -32.3720000  -5.9950000  41.8540000
 -32.4060000  -5.8540000  40.5020000 -31.6810000  -6.2960000  39.9550000
 -32.7110000  -4.5930000  40.2050000 -32.1380000  -4.0710000  39.4530000
 -32.8770000  -3.9140000  41.3340000 -32.6270000  -4.7750000  42.3950000
 -32.1760000  -4.5040000  43.3380000 -33.9710000  -8.5670000  41.5820000
 -33.7630000  -9.6890000  41.0930000 -34.8260000  -7.6900000  41.0540000
 -35.2970000  -7.0630000  41.6900000 -35.4830000  -7.9150000  39.7980000
 -36.1380000  -8.7250000  40.1170000 -36.2680000  -6.6710000  39.3780000
 -36.1470000  -5.8240000  40.0540000 -37.2990000  -6.9910000  39.5320000
 -35.9530000  -6.3220000  38.3950000 -34.4870000  -8.3060000  38.6910000
 -33.4030000  -7.7090000  38.5970000 -34.8450000  -9.2820000  37.8450000
 -36.1970000  -9.8120000  37.5800000 -37.0970000  -9.2030000  37.4950000
 -36.4130000 -10.5050000  38.3930000 -36.0410000 -10.6340000  36.2990000
 -36.7040000 -11.4760000  36.4970000 -36.2770000 -10.2560000  35.3040000
 -34.5740000 -11.0160000  36.2840000 -34.5750000 -11.8740000  36.9570000
 -34.0220000 -11.4300000  35.4400000 -33.8780000  -9.8320000  36.9050000
 -33.0340000 -10.2170000  37.4780000 -33.4870000  -8.7870000  35.8460000
 -34.2630000  -7.8680000  35.5490000 -32.2820000  -8.9270000  35.2780000
 -31.7050000  -9.7250000  35.5010000 -31.7100000  -7.8990000  34.4170000
 -31.7440000  -7.0010000  35.0340000 -30.2180000  -8.1600000  34.1570000
 -30.1010000  -8.9370000  33.4010000 -29.7160000  -8.6030000  35.0160000
 -29.4100000  -6.8930000  33.7980000 -29.8890000  -6.2490000  33.0600000
 -29.1420000  -6.0150000  35.0520000 -29.8970000  -5.8170000  35.8130000
 -28.3120000  -6.4350000  35.6200000 -28.8140000  -5.0290000  34.7230000
 -28.0580000  -7.3340000  33.1720000 -27.8390000  -8.3770000  33.4030000
 -27.9650000  -7.3390000  32.0860000 -27.2030000  -6.7890000  33.5720000
 -32.4630000  -7.7540000  33.0750000 -32.4460000  -6.6810000  32.4770000
 -33.0860000  -8.8350000  32.5740000 -32.5920000  -9.7070000  32.7020000
 -33.9460000  -8.7710000  31.3790000 -33.3520000  -8.4360000  30.5280000
 -34.3730000 -10.1720000  30.8930000 -34.8780000 -10.1500000  29.9270000
 -33.5270000 -10.8260000  30.6820000 -35.2840000 -10.8640000  31.8280000
 -34.9750000 -11.8090000  32.7530000 -34.1550000 -12.5080000  32.6850000
 -36.0930000 -12.2120000  33.4200000 -36.1680000 -13.1480000  33.7920000
 -37.1900000 -11.5510000  32.9440000 -38.5410000 -11.6610000  33.2680000
 -38.9400000 -12.4020000  33.9440000 -39.4430000 -10.8860000  32.5600000
 -40.4810000 -11.1800000  32.6040000 -39.0270000 -10.0310000  31.5450000
 -39.8160000  -9.7990000  30.8450000 -37.6820000  -9.9480000  31.1780000
 -37.5360000  -9.7650000  30.1230000 -36.7180000 -10.6870000  31.9070000
 -35.1850000  -7.8920000  31.6450000 -35.6390000  -7.1780000  30.7480000
 -35.7450000  -7.9710000  32.8680000 -35.4390000  -8.6980000  33.4990000
 -36.8940000  -7.1590000  33.2560000 -37.6270000  -7.2910000  32.4600000
 -37.4900000  -7.6180000  34.6060000 -37.7370000  -8.6800000  34.5860000
 -36.8610000  -7.2680000  35.4250000 -38.8570000  -7.0520000  34.9540000
 -39.0620000  -6.0370000  34.6140000 -39.9730000  -7.8370000  34.2190000
 -40.0160000  -7.8120000  33.1300000 -40.1340000  -8.8710000  34.5240000
 -40.9340000  -7.3970000  34.4820000 -39.0920000  -7.1330000  36.4900000
 -38.3460000  -6.8720000  37.2400000 -39.3930000  -8.1530000  36.7300000
 -40.0200000  -6.6060000  36.7110000 -36.4920000  -5.6900000  33.3740000
 -37.2700000  -4.8080000  32.9940000 -35.2750000  -5.4150000  33.8960000
 -34.6410000  -6.1100000  34.2620000 -34.7690000  -4.0630000  33.9510000
 -35.4840000  -3.4950000  34.5450000 -33.4420000  -3.9740000  34.7540000
 -33.0800000  -3.2310000  34.0430000 -32.3620000  -3.9450000  34.9020000
 -33.6110000  -4.3310000  36.2090000 -33.1520000  -4.3290000  37.1980000
 -33.2950000  -5.3730000  36.1470000 -34.7360000  -3.3040000  37.1060000
 -33.7910000  -1.7500000  37.2250000 -32.7130000  -1.8260000  37.3680000
 -34.2770000  -1.3790000  38.1280000 -33.9390000  -1.0640000  36.3910000
 -34.6660000  -3.4620000  32.5500000 -35.1940000  -2.3790000  32.3150000
 -33.9810000  -4.1530000  31.6270000 -33.1660000  -4.6620000  31.9380000
 -33.8760000  -3.7080000  30.2370000 -33.4110000  -2.7230000  30.1930000
 -33.0300000  -4.7030000  29.4190000 -33.2350000  -4.5720000  28.3560000
 -33.3850000  -5.7230000  29.5660000 -31.5420000  -4.7180000  29.7570000
 -30.8310000  -3.5570000  30.1810000 -31.1690000  -2.5520000  30.3830000
 -29.4950000  -3.6320000  30.5080000 -29.1740000  -2.9360000  31.2690000
 -28.7790000  -4.8160000  30.3650000 -27.4610000  -4.8530000  30.6780000
 -27.3010000  -4.5800000  31.5840000 -29.4580000  -5.9780000  29.9580000
 -28.9890000  -6.9490000  29.9030000 -30.8120000  -5.9290000  29.6510000
 -31.2020000  -6.8630000  29.2770000 -35.2190000  -3.4980000  29.5600000
 -35.3760000  -2.5120000  28.8360000 -36.1890000  -4.3880000  29.8030000
 -36.0170000  -5.1760000  30.4110000 -37.5390000  -4.2300000  29.2730000
 -37.4120000  -4.2680000  28.1910000 -38.4150000  -5.4320000  29.6710000
 -38.7230000  -5.4080000  30.7160000 -37.8070000  -6.3070000  29.4410000
 -39.7220000  -5.6100000  28.8860000 -40.0280000  -4.7650000  28.2680000
 -39.5850000  -6.7060000  27.7970000 -39.4070000  -7.7360000  28.1050000
 -38.8510000  -6.5260000  27.0120000 -40.5240000  -6.7550000  27.2450000
 -40.9110000  -5.9450000  29.8350000 -40.9270000  -5.8310000  30.9190000
 -41.7420000  -5.3320000  29.4860000 -41.2030000  -6.9880000  29.7080000
 -38.1940000  -2.9300000  29.7820000 -38.7720000  -2.1700000  29.0010000
 -38.0940000  -2.6830000  31.1020000 -37.4270000  -3.1950000  31.6620000
 -38.7460000  -1.5530000  31.7310000 -39.7760000  -1.6540000  31.3880000
 -38.7570000  -1.6930000  33.2580000 -38.2530000  -0.8560000  33.7410000
 -38.2970000  -2.5730000  33.7080000 -39.8200000  -1.8290000  33.4590000
 -38.0970000  -0.2120000  31.3310000 -38.7760000   0.7880000  31.1080000
 -36.7670000  -0.2030000  31.3010000 -36.4290000  -0.7510000  32.0790000
 -35.9610000   0.9410000  30.8380000 -36.2260000   1.8240000  31.4200000
 -34.4320000   0.6570000  30.9870000 -34.0860000  -0.2670000  30.5240000
 -33.5980000   1.7520000  30.3010000 -32.6000000   1.9150000  30.7060000
 -34.0950000   2.6870000  30.5580000 -33.4840000   1.5880000  29.2290000
 -34.0310000   0.6080000  32.4820000 -34.7720000   0.3300000  33.2320000
 -33.7330000   1.6030000  32.8110000 -32.7370000  -0.1600000  32.7490000
 -31.8620000   0.4900000  32.7050000 -32.4460000  -1.0450000  32.1830000
 -32.7900000  -0.4070000  33.8090000 -36.3280000   1.3000000  29.3990000
 -36.6300000   2.4500000  29.0870000 -36.2900000   0.3000000  28.5200000
 -35.7050000  -0.4840000  28.7710000 -36.7550000   0.4290000  27.1280000
 -36.1690000   1.1760000  26.5930000 -36.6210000  -0.9230000  26.3610000
 -36.9270000  -1.8200000  26.9000000 -37.5670000  -1.0180000  25.1470000
 -37.5650000  -0.1050000  24.5510000 -37.4740000  -1.9410000  24.5740000
 -38.6150000  -1.1440000  25.4180000 -35.1560000  -1.1410000  25.9290000
 -34.8990000  -0.5840000  25.0280000 -35.0880000  -2.1980000  25.6690000
 -34.3960000  -0.9430000  26.6850000 -38.1720000   1.0000000  27.0700000
 -38.4060000   1.9610000  26.3310000 -39.1100000   0.4440000  27.8570000
 -38.8430000  -0.1180000  28.6520000 -40.4850000   0.9150000  27.8580000
 -40.8750000   0.8600000  26.8420000 -41.3970000   0.0990000  28.8190000
 -40.9990000  -0.6710000  29.4810000 -41.7630000   0.8360000  29.5330000
 -42.4440000  -0.7480000  28.0790000 -43.1310000  -0.1600000  27.4710000
 -41.8140000  -1.7650000  27.0870000 -42.5570000  -2.5370000  26.8850000
 -40.9030000  -2.3150000  27.3230000 -41.6450000  -1.3570000  26.0910000
 -43.3540000  -1.4630000  29.0980000 -43.9800000  -0.7070000  29.5730000
 -44.0460000  -2.0740000  28.5190000 -42.9680000  -2.1930000  29.8090000
 -40.5720000   2.4040000  28.2210000 -41.3260000   3.1370000  27.5620000
 -39.8200000   2.8820000  29.2360000 -39.1610000   2.3440000  29.7810000
 -39.8220000   4.3180000  29.6000000 -40.8410000   4.6710000  29.7620000
 -38.9650000   4.4860000  30.8760000 -38.7540000   5.0900000  31.7580000
 -39.7180000   3.9580000  31.4600000 -37.5760000   4.4620000  30.6060000
 -37.1810000   5.3140000  30.8050000 -39.3440000   5.1930000  28.4700000
 -39.8960000   6.2790000  28.2750000 -38.3310000   4.7650000  27.7140000
 -37.5900000   4.2860000  28.2040000 -37.8640000   5.5360000  26.5820000
 -37.8250000   6.5820000  26.8880000 -36.4740000   5.0570000  26.1470000
 -36.1790000   5.8450000  25.4540000 -36.4410000   4.0840000  25.6570000
 -35.4380000   5.1460000  27.2270000 -34.5110000   4.1550000  27.4870000
 -34.6170000   3.1820000  27.2360000 -33.7180000   4.5970000  28.4880000
 -32.8050000   4.3080000  28.9880000 -34.1140000   5.7710000  28.8860000
 -35.1710000   6.1670000  28.1240000 -35.5250000   7.1700000  28.3090000
 -38.8120000   5.5360000  25.3970000 -38.8230000   6.4930000  24.6180000
 -39.6510000   4.4990000  25.2670000 -39.8170000   3.8570000  26.0290000
 -40.6330000   4.3970000  24.1870000 -40.1630000   4.6470000  23.2360000
 -41.1900000   2.9610000  24.0810000 -41.9800000   2.7070000  24.7880000
 -41.7930000   2.6440000  22.6860000 -41.1610000   1.9930000  22.0820000
 -42.6450000   2.0010000  22.9060000 -42.2400000   3.3340000  21.9710000
 -40.1410000   2.0320000  24.3080000 -39.2920000   2.4250000  24.0890000
 -41.7890000   5.3850000  24.3500000 -42.6170000   5.4960000  23.4460000
 -41.8780000   6.1210000  25.4710000 -41.6510000   5.6730000  26.3470000
 -42.7600000   7.2760000  25.5620000 -43.7570000   6.8420000  25.4750000
 -42.7070000   7.9170000  26.9590000 -42.9610000   7.2470000  27.7810000
 -41.7120000   8.3060000  27.1740000 -43.7520000   9.0030000  27.1330000
 -44.9480000   8.7340000  27.0380000 -43.2870000  10.2140000  27.4420000
 -42.4870000  10.6110000  26.9710000 -43.6160000  10.7840000  28.2080000
 -42.4060000   8.3510000  24.5020000 -43.2740000   9.0410000  23.9770000
 -41.1070000   8.4910000  24.2200000 -40.4970000   8.2920000  25.0000000
 -40.5870000   9.4560000  23.2420000 -41.0720000  10.3980000  23.4970000
 -39.0690000   9.6510000  23.4760000 -38.4950000   8.7440000  23.2890000
 -38.6380000  10.4250000  22.8410000 -38.8220000   9.9450000  24.8380000
 -38.4710000  10.8340000  24.9250000 -40.8610000   9.1080000  21.7610000
 -40.6820000   9.9490000  20.8830000 -41.2430000   7.8640000  21.4630000
 -40.7690000   7.1830000  22.0390000 -41.6950000   7.4190000  20.1160000
 -41.2560000   7.9900000  19.2980000 -41.3160000   5.9470000  19.8900000
 -41.6570000   5.3060000  20.7030000 -42.0820000   5.2850000  18.7160000
 -43.0450000   4.8680000  19.0100000 -41.6120000   4.4090000  18.2690000
 -42.3040000   5.9320000  17.8670000 -39.8040000   5.8350000  19.6590000
 -39.1800000   6.6960000  19.8970000 -39.6810000   5.5820000  18.6060000
 -39.6080000   4.9230000  20.2220000 -43.1870000   7.6310000  19.9120000
 -43.6110000   8.0700000  18.8390000 -43.9940000   7.2880000  20.9260000
 -43.6360000   6.7950000  21.7310000 -45.4490000   7.4800000  20.8610000
 -45.7730000   7.2390000  19.8480000 -46.1760000   6.4830000  21.7650000
 -47.2190000   6.4900000  21.4460000 -45.7880000   5.0180000  21.4320000
 -44.8480000   4.5440000  21.7160000 -45.8740000   4.8580000  20.3570000
 -46.5240000   4.3260000  21.8400000 -45.9890000   6.7850000  23.2820000
 -45.7900000   5.8390000  23.7860000 -46.9420000   7.1610000  23.6530000
 -45.2410000   7.4960000  23.6310000 -45.9110000   8.9140000  21.1480000
 -47.0190000   9.2710000  20.7500000 -45.0820000   9.7380000  21.8120000
 -44.1610000   9.4050000  22.0600000 -45.4050000  11.1360000  22.1150000
 -46.3800000  11.1230000  22.6030000 -44.3370000  11.8180000  23.0280000
 -43.2670000  11.6380000  22.9220000 -44.4520000  12.8790000  22.8050000
 -44.5890000  11.5930000  24.5060000 -43.8420000  12.1230000  25.3230000
 -45.6340000  10.8160000  24.8610000 -45.6580000   9.8260000  24.6640000
 -46.3150000  10.9960000  25.5840000 -45.6060000  12.0160000  20.8880000
 -46.6050000  12.7470000  20.8370000 -44.7010000  11.9500000  19.8960000
 -43.2830000  11.5740000  19.9220000 -42.7400000  12.3090000  20.5160000
 -43.1460000  10.5100000  20.1160000 -42.7970000  11.8010000  18.4930000
 -42.4360000  12.8070000  18.2770000 -42.1190000  11.0100000  18.1750000
 -44.0260000  11.8250000  17.6480000 -44.0450000  10.8290000  17.2050000
 -44.1430000  12.4260000  16.7460000 -45.0660000  12.4270000  18.5990000
 -45.0630000  13.5120000  18.6990000 -46.4390000  11.9780000  18.1540000
 -47.2760000  12.8420000  17.9020000 -46.6740000  10.6530000  18.0560000
 -45.9690000   9.9450000  18.2100000 -47.8340000  10.1550000  17.3840000
 -47.6460000  10.4420000  16.3500000 -47.9310000   8.5980000  17.3170000
 -47.7950000   7.6790000  17.8880000 -48.9870000   8.5100000  17.5690000
 -47.2400000   8.0090000  16.1460000 -47.9300000   7.8730000  14.9240000
 -49.0020000   7.8900000  14.7940000 -47.2910000   7.3250000  13.8190000
 -47.7180000   7.2930000  12.8270000 -46.0210000   6.8160000  13.9240000
 -45.5810000   6.3380000  13.0610000 -45.3290000   6.8900000  15.1070000
 -44.3420000   6.4530000  15.0680000 -45.9020000   7.4890000  16.2250000
 -45.1640000   7.5220000  17.0130000 -49.1240000  10.7270000  18.0180000
 -49.8040000  11.5720000  17.4570000 -49.3960000  10.3020000  19.2500000
 -48.5570000  10.1810000  19.7990000 -50.6790000  10.5970000  19.8910000
 -51.4230000  10.1510000  19.2310000 -50.8160000   9.9520000  21.2830000
 -51.8540000  10.1440000  21.5550000 -50.7010000   8.4200000  21.2030000
 -51.0900000   8.0210000  20.2670000 -49.7200000   7.9460000  21.2360000
 -51.4430000   8.0880000  21.9290000 -49.8480000  10.5620000  22.3390000
 -50.4810000  11.3810000  22.6810000 -48.8300000  10.8050000  22.0370000
 -49.6000000   9.7590000  23.6190000 -49.8750000   8.7050000  23.6730000
 -50.0820000  10.2500000  24.4640000 -48.5420000   9.7690000  23.8810000
 -50.9520000  12.1100000  19.9230000 -52.0310000  12.5530000  19.5910000
 -49.9620000  12.9500000  20.2500000 -48.9970000  12.6770000  20.1370000
 -50.2130000  14.3910000  20.3270000 -51.1660000  14.6010000  20.8130000
 -49.1370000  15.0990000  21.1870000 -49.3030000  16.1690000  21.0620000
 -48.0910000  14.9350000  20.9290000 -49.3170000  14.8140000  22.6650000
 -48.8450000  13.6330000  23.2470000 -47.8430000  13.3750000  22.9370000
 -49.0920000  13.3320000  24.5970000 -48.9670000  12.3630000  25.0580000
 -49.6940000  14.2730000  25.4210000 -49.8690000  14.0140000  26.7450000
 -49.8770000  14.8240000  27.2610000 -50.1600000  15.4590000  24.8650000
 -50.9450000  15.9380000  25.4320000 -49.9990000  15.7140000  23.4950000
 -50.7760000  16.3230000  23.0570000 -50.3810000  14.9770000  18.9200000
 -51.4750000  15.4170000  18.5300000 -49.2880000  14.9780000  18.1430000
 -48.3750000  14.7480000  18.5080000 -49.2750000  15.6590000  16.8690000
 -49.6070000  16.6700000  17.1070000 -47.8490000  15.7880000  16.3490000
 -47.4170000  14.8570000  15.9810000 -47.2470000  16.2390000  17.1380000
 -47.9050000  16.4820000  15.5100000 -50.1640000  14.9710000  15.8250000
 -50.9730000  15.6150000  15.1650000 -50.0220000  13.6490000  15.6790000
 -49.0980000  13.2760000  15.8430000 -50.7990000  12.8770000  14.7130000
 -50.6450000  13.3200000  13.7300000 -50.2890000  11.4100000  14.6340000
 -49.2020000  11.3350000  14.6430000 -50.8050000  10.8010000  15.3760000
 -50.5860000  10.6840000  13.3640000 -49.6930000  10.7490000  12.2650000
 -48.6400000  10.9770000  12.3260000 -49.9600000  10.0650000  11.0930000
 -49.2150000  10.0510000  10.3110000 -51.0790000   9.2440000  11.0010000
 -51.3250000   8.5450000   9.8700000 -50.8050000   8.8790000   9.1350000
 -51.9270000   9.1010000  12.0830000 -52.6420000   8.2960000  12.0010000
 -51.6980000   9.8030000  13.2540000 -52.3710000   9.4260000  14.0100000
 -52.3110000  12.9300000  14.9940000 -53.0930000  12.5540000  14.1150000
 -52.7590000  13.3750000  16.1880000 -52.1460000  13.4070000  16.9900000
 -54.1890000  13.6540000  16.4210000 -54.8000000  12.9980000  15.8020000
 -54.5400000  13.4750000  17.9230000 -55.5770000  13.7980000  18.0090000
 -54.0170000  14.1270000  18.6220000 -54.3670000  11.9890000  18.3740000
 -53.9510000  11.7340000  19.3490000 -53.8030000  11.4500000  17.6130000
 -55.6710000  11.2750000  18.3940000 -56.0510000  11.2010000  17.3760000
 -55.6560000  10.2120000  18.6350000 -56.3400000  11.7890000  19.6130000
 -55.8110000  11.7130000  20.4700000 -57.5310000  12.3300000  19.7280000
 -58.3380000  12.4770000  18.6730000 -58.1340000  12.4050000  17.6870000
 -59.3350000  12.3830000  18.7990000 -57.9170000  12.7320000  20.9430000
 -58.3400000  13.6490000  20.9420000 -57.4220000  12.5730000  21.8090000
 -54.6890000  14.9950000  15.8980000 -55.8720000  15.2930000  16.0360000
 -53.8120000  15.8130000  15.3600000 -53.0530000  15.8240000  16.0270000
 -54.1890000  17.0580000  14.6660000 -55.2110000  17.2950000  14.9630000
 -53.2170000  18.2160000  14.9960000 -52.3470000  18.0420000  14.3630000
 -53.7420000  19.5810000  14.5350000 -54.6820000  19.7530000  15.0600000
 -53.1160000  20.3920000  14.9070000 -54.0540000  19.7630000  13.5060000
 -52.8930000  18.2510000  16.5240000 -52.4730000  19.1130000  17.0440000
 -51.9630000  17.6860000  16.5930000 -54.1370000  18.2080000  17.4620000
 -53.7900000  17.8950000  18.4470000 -55.0320000  17.6200000  17.2570000
 -54.4980000  19.2310000  17.5730000 -54.2070000  16.8380000  13.1570000
 -53.1930000  16.4530000  12.5670000 -55.3470000  17.1260000  12.5180000
 -55.9450000  17.8140000  12.9520000 -55.5180000  17.0250000  11.0580000
 -55.5380000  16.0070000  10.6700000 -56.9170000  17.4530000  10.6250000
 -56.5260000  17.7230000   9.6440000 -57.5770000  18.2850000  10.3820000
 -58.0010000  16.6390000  11.1550000 -57.6780000  16.8740000  12.1690000
 -58.0900000  15.6750000  10.6540000 -59.4300000  17.2330000  11.1950000
 -60.1850000  16.4920000  11.4570000 -59.4960000  18.0440000  11.9200000
 -59.9340000  17.8660000   9.9780000 -60.1840000  18.8370000  10.1010000
 -60.4530000  17.3290000   8.8810000 -60.5960000  15.9970000   8.6630000
 -60.3780000  15.1480000   9.1650000 -61.1850000  15.6970000   7.9000000
 -60.8880000  18.1930000   7.9340000 -61.4110000  17.8790000   7.1290000
 -60.8040000  19.1970000   7.8720000 -54.4540000  17.8590000  10.3380000
 -53.8220000  17.3980000   9.3910000 -54.3010000  19.1140000  10.7880000
 -55.1290000  19.5940000  11.1120000 -53.3020000  20.0290000  10.2570000
 -53.6380000  20.1920000   9.2330000 -53.3490000  21.3850000  11.0310000
 -53.2400000  21.5020000  12.1100000 -54.4010000  21.6590000  10.9520000
 -52.6450000  22.5210000  10.3440000 -52.7990000  23.3890000  10.9850000
 -51.7330000  22.0770000   9.9460000 -53.3460000  23.0500000   9.1200000
 -54.5530000  23.3670000   9.2160000 -52.6930000  23.1830000   8.0620000
 -51.8850000  19.4460000  10.2220000 -51.1600000  19.6430000   9.2540000
 -51.4680000  18.7670000  11.2900000 -51.7950000  19.1590000  12.1620000
 -50.2140000  17.9900000  11.2920000 -49.3600000  18.5880000  10.9750000
 -49.8730000  17.4450000  12.6870000 -50.6880000  16.9780000  13.2410000
 -49.1880000  16.6150000  12.5180000 -49.0970000  18.4060000  13.5490000
 -47.6900000  18.4620000  13.4300000 -47.1390000  17.8430000  12.7360000
 -46.9470000  19.3400000  14.2200000 -45.8740000  19.3950000  14.1060000
 -47.5850000  20.1100000  15.1870000 -47.0090000  20.3220000  16.0760000
 -48.9640000  20.0550000  15.3190000 -49.4390000  20.2880000  16.2600000
 -49.7120000  19.2590000  14.4920000 -50.7220000  19.6420000  14.5200000
 -50.2600000  16.8380000  10.2930000 -49.2940000  16.6470000   9.5470000
 -51.3540000  16.0470000  10.2740000 -51.9490000  15.9610000  11.0860000
 -51.5160000  14.9090000   9.3670000 -50.7720000  14.1280000   9.5220000
 -52.8690000  14.2240000   9.5980000 -53.7610000  14.8230000   9.4100000
 -52.9470000  13.5420000   8.7510000 -52.9250000  13.2850000  10.8260000
 -52.2510000  13.5030000  11.6550000 -52.5990000  12.3070000  10.4730000
 -54.3470000  13.1120000  11.3620000 -54.6120000  13.8550000  12.1140000
 -54.3720000  12.1350000  11.8460000 -55.3560000  12.8570000  10.3110000
 -55.1160000  12.2040000   9.5790000 -56.6620000  12.8720000  10.5000000
 -57.1990000  13.0590000  11.6810000 -56.9230000  12.4950000  12.4720000
 -58.2090000  13.0280000  11.6660000 -57.4820000  12.6200000   9.4760000
 -57.9760000  11.7440000   9.3780000 -57.5540000  13.1520000   8.6200000
 -51.3760000  15.2590000   7.8910000 -50.7250000  14.5100000   7.1480000
 -51.9800000  16.3730000   7.4340000 -52.2400000  17.1440000   8.0320000
 -51.9080000  16.7700000   6.0440000 -52.1410000  15.8980000   5.4320000
 -52.9710000  17.8340000   5.6780000 -53.1320000  18.6940000   6.3280000
 -52.6600000  18.2450000   4.7170000 -54.3460000  17.2040000   5.4170000
 -54.5090000  16.7820000   4.4250000 -54.5790000  16.4370000   6.1550000
 -55.4410000  18.2220000   5.4050000 -55.3070000  19.3040000   4.8190000
 -56.5890000  17.9090000   6.0050000 -56.9720000  17.0470000   6.3660000
 -57.3100000  18.6080000   5.8940000 -50.5010000  17.2680000   5.6980000
 -49.9920000  16.9950000   4.6130000 -49.8920000  18.0240000   6.6140000
 -50.5130000  18.7450000   6.9540000 -48.5030000  18.4710000   6.4960000
 -48.4780000  19.0970000   5.6040000 -48.0450000  19.3140000   7.7030000
 -47.8850000  18.6780000   8.5730000 -46.6700000  19.9550000   7.4660000
 -45.9920000  19.5720000   6.7020000 -46.1680000  20.3740000   8.3380000
 -46.9720000  20.8150000   6.8690000 -48.9870000  20.3640000   7.9100000
 -49.2080000  20.4370000   8.8420000 -47.5260000  17.3020000   6.3740000
 -46.5750000  17.3830000   5.5860000 -47.7230000  16.1880000   7.1230000
 -48.4000000  16.0450000   7.8590000 -46.8960000  15.0030000   6.9650000
 -45.8320000  15.2350000   7.0010000 -47.2320000  13.9460000   8.0430000
 -48.1870000  13.4440000   7.8850000 -46.5450000  13.1030000   7.9780000
 -46.9640000  14.3980000   9.4550000 -45.8070000  15.1390000   9.7920000
 -45.1050000  15.5180000   9.0640000 -45.5760000  15.5120000  11.1250000
 -44.7930000  16.2100000  11.3820000 -46.4720000  15.0990000  12.1190000
 -46.2870000  15.0570000  13.1830000 -47.5910000  14.3720000  11.7890000
 -48.0880000  13.8230000  12.5750000 -47.8210000  13.9960000  10.4780000
 -48.4190000  13.1080000  10.3320000 -47.0160000  14.3880000   5.5930000
 -46.0090000  13.8840000   5.0930000 -48.2040000  14.4000000   4.9630000
 -49.0300000  14.2100000   5.5120000 -48.3690000  13.9250000   3.5970000
 -48.1010000  12.8690000   3.5580000 -49.8230000  14.0790000   3.1210000
 -50.4860000  14.7790000   3.6300000 -49.7130000  14.5490000   2.1440000
 -50.7170000  12.8380000   3.2980000 -50.6860000  12.3590000   4.2760000
 -50.4310000  12.0620000   2.5870000 -52.1660000  13.2370000   3.0170000
 -52.7310000  13.5400000   3.8980000 -52.6620000  12.3010000   2.7600000
 -52.2970000  13.9990000   1.7440000 -51.6990000  13.7190000   0.9790000
 -53.2860000  14.8270000   1.4230000 -54.3070000  15.0730000   2.2440000
 -54.7990000  15.9450000   2.1100000 -54.9900000  14.3760000   2.5030000
 -53.2730000  15.4230000   0.2310000 -54.1060000  15.4810000  -0.3370000
 -52.5610000  16.0500000  -0.1180000 -47.4950000  14.6920000   2.6110000
 -46.7330000  14.0950000   1.8450000 -47.6140000  16.0370000   2.6250000
 -48.0610000  16.5720000   3.3560000 -46.8940000  16.8810000   1.7120000
 -47.0990000  16.5990000   0.6790000 -47.3750000  18.3400000   1.8390000
 -47.4610000  19.2460000   2.4380000 -46.3370000  18.6720000   1.8610000
 -48.6830000  18.6010000   1.0930000 -49.4870000  17.8950000   1.3020000
 -48.4550000  18.5000000   0.0320000 -49.2240000  20.0340000   1.2340000
 -48.5460000  20.8540000   0.9950000 -49.9210000  20.1030000   0.3990000
 -50.1180000  20.2470000   2.4730000 -49.4890000  20.3650000   3.3550000
 -50.9030000  19.4960000   2.5630000 -50.8320000  21.5460000   2.4310000
 -51.6680000  21.4890000   1.8670000 -50.3320000  22.3380000   2.0540000
 -51.1410000  21.8140000   3.3550000 -45.3740000  16.7350000   1.8640000
 -44.6650000  16.9200000   0.8830000 -44.8950000  16.4300000   3.0760000
 -45.5180000  16.3440000   3.8660000 -43.4610000  16.2920000   3.3360000
 -42.9450000  17.1000000   2.8180000 -43.1420000  16.4180000   4.8430000
 -43.6350000  15.6430000   5.4310000 -41.6510000  16.1250000   5.0890000
 -41.4600000  15.0810000   5.3370000 -41.0820000  16.2780000   4.1720000
 -41.2160000  16.7580000   5.8630000 -43.4280000  17.8770000   5.3200000
 -42.5910000  18.4610000   4.9390000 -44.2670000  18.4250000   4.8900000
 -43.5790000  17.9920000   6.8460000 -44.4110000  18.5160000   7.3160000
 -43.6670000  17.0040000   7.2980000 -42.6010000  18.3520000   7.1640000
 -42.9190000  14.9730000   2.7800000 -41.9050000  14.9700000   2.0770000
 -43.5680000  13.8390000   3.1080000 -44.1450000  13.8120000   3.9360000
 -43.1910000  12.5210000   2.5770000 -42.1310000  12.3360000   2.7490000
 -44.0430000  11.4040000   3.2550000 -45.1100000  11.5440000   3.0810000
 -43.8190000  10.0190000   2.5820000 -44.3080000   9.1950000   3.1020000
 -42.7740000   9.7180000   2.5180000 -44.2660000   9.9690000   1.5890000
 -43.7180000  11.2820000   4.7840000 -42.8070000  10.6860000   4.8390000
 -43.4450000  12.1180000   5.4280000 -44.8060000  10.5560000   5.5790000
 -44.3710000   9.6010000   5.8710000 -45.0680000  10.9900000   6.5440000
 -45.7450000  10.3040000   5.0860000 -43.3470000  12.4500000   1.0600000
 -42.4970000  11.8630000   0.3750000 -44.4140000  13.0610000   0.5240000
 -44.8570000  13.7970000   1.0540000 -44.6270000  13.0680000  -0.9180000
 -44.4990000  12.0680000  -1.3320000 -46.0170000  13.6240000  -1.3090000
 -45.9110000  13.7110000  -2.3910000 -46.2880000  14.6430000  -1.0340000
 -47.1770000  12.6380000  -1.0830000 -47.4250000  12.4680000  -0.0350000
 -46.9040000  11.6390000  -1.4220000 -48.3840000  13.0690000  -1.9380000
 -48.2560000  12.6000000  -2.9140000 -48.4860000  14.1460000  -2.0680000
 -49.6700000  12.5410000  -1.4500000 -49.6830000  11.7170000  -0.8660000
 -50.8540000  12.8740000  -1.9740000 -50.9450000  13.6920000  -3.0250000
 -51.2410000  13.3500000  -3.9280000 -51.0000000  14.7000000  -2.9890000
 -51.9520000  12.3240000  -1.4580000 -52.8640000  12.7550000  -1.4040000
 -52.1200000  11.3410000  -1.6170000 -43.5220000  13.8530000  -1.6110000
 -42.8450000  13.3160000  -2.4980000 -43.3000000  15.0920000  -1.1740000
 -43.6330000  15.4190000  -0.2780000 -42.3610000  15.9710000  -1.7790000
 -42.7990000  15.9370000  -2.7760000 -42.4650000  17.4570000  -1.2020000
 -43.4470000  17.8430000  -1.4770000 -41.7900000  18.1710000  -1.6750000
 -42.1030000  17.4590000   0.1410000 -41.9520000  18.3770000   0.3770000
 -40.9240000  15.4820000  -1.5980000 -39.8420000  15.8460000  -2.0860000
 -40.9560000  16.2750000  -2.5010000 -57.4370000  39.5700000  25.0510000
 -57.7848535  40.5111447  25.1665234 -57.5840000  40.5690000  25.0840000
 -57.1060000  39.3710000  25.9840000 -58.5880000  38.6940000  24.6300000
 -58.6630000  38.7340000  23.5440000 -58.3290000  37.2490000  25.0400000
 -58.7030000  37.0510000  26.0450000 -57.2630000  37.1280000  24.8510000
 -58.9450000  36.6970000  24.3300000 -59.9500000  39.1640000  25.1460000
 -60.6590000  38.4550000  25.8720000 -60.3070000  40.3910000  24.7460000
 -59.6780000  40.9220000  24.1610000 -61.6580000  40.9220000  24.8730000
 -61.8680000  40.6620000  25.9110000 -61.6330000  42.4450000  24.7110000
 -61.2680000  42.7010000  23.7160000 -63.0050000  42.9270000  24.9310000
 -62.9850000  43.8250000  25.5490000 -63.4990000  42.7410000  23.9780000
 -63.6590000  42.4080000  25.6320000 -60.7890000  43.0410000  25.6760000
 -60.2550000  43.7320000  25.2790000 -62.5500000  40.2980000  23.7660000
 -62.0520000  40.1460000  22.6340000 -63.8430000  39.9740000  24.0310000
 -64.2890000  39.9670000  24.9370000 -64.6700000  39.2220000  23.1380000
 -63.9420000  38.6800000  22.5340000 -65.4770000  38.1240000  23.8750000
 -65.8460000  38.1460000  24.9000000 -66.4100000  38.1020000  23.3110000
 -64.6470000  36.9190000  24.1410000 -63.5560000  36.9320000  25.0050000
 -63.2100000  37.6190000  25.6600000 -63.0290000  35.7300000  25.0290000
 -61.9590000  35.6290000  25.1380000 -63.7370000  34.9060000  24.2710000
 -64.7730000  35.6150000  23.7170000 -65.5270000  35.0250000  23.2160000
 -65.6750000  40.0870000  22.3490000 -66.5680000  40.7090000  22.9310000
 -65.5330000  40.0870000  21.0250000 -64.7040000  39.6690000  20.6270000
 -66.2870000  40.9330000  20.1260000 -66.3580000  41.8910000  20.6410000
 -65.4470000  41.2390000  18.8640000 -65.1690000  40.5550000  18.0620000
 -66.0720000  41.9850000  18.3740000 -64.1170000  41.9100000  19.1860000
 -64.2070000  42.9710000  18.9510000 -63.7470000  41.9510000  20.2110000
 -62.9440000  41.2840000  18.4410000 -62.0900000  41.7790000  18.9040000
 -62.7400000  40.2280000  18.6170000 -62.9810000  41.6780000  17.0190000
 -63.6390000  42.4090000  16.7910000 -61.9660000  41.5500000  16.1690000
 -60.7680000  41.1520000  16.6060000 -59.9950000  40.5360000  16.3970000
 -60.3510000  41.8510000  17.2040000 -62.1190000  42.0220000  14.9780000
 -61.2090000  42.0710000  14.5420000 -62.5570000  42.9300000  15.0350000
 -67.6330000  40.2780000  19.7760000 -67.6560000  39.0910000  19.4470000
 -68.7210000  41.0380000  19.8000000 -68.5920000  42.0160000  19.5840000
 -70.0570000  40.5240000  19.5170000 -69.9970000  39.5160000  19.1060000
 -70.8830000  40.5070000  20.7870000 -71.9250000  40.5240000  20.4700000
 -70.6200000  41.4150000  21.3290000 -70.4240000  39.5020000  21.8570000
 -69.3460000  39.5360000  22.0140000 -71.0320000  39.8940000  23.2180000
 -71.0270000  40.9600000  23.4450000 -72.0640000  39.5510000  23.3050000
 -70.4710000  39.3930000  24.0070000 -70.7750000  38.0760000  21.4300000
 -69.8500000  37.5140000  21.3050000 -71.3670000  37.5540000  22.1820000
 -71.3910000  38.0420000  20.5310000 -70.7540000  41.4160000  18.4950000
 -70.5790000  42.6350000  18.5070000 -71.5900000  40.8210000  17.6440000
 -72.1260000  40.0560000  18.0260000 -72.3220000  41.5490000  16.6110000
 -72.0510000  42.6010000  16.5210000 -72.0910000  40.9480000  15.2110000
 -71.3160000  40.1850000  15.1510000 -73.0560000  40.5570000  14.8880000
 -71.7090000  41.9390000  14.1210000 -72.4210000  42.7390000  13.9190000
 -70.3730000  42.6610000  14.4110000 -69.8250000  42.6370000  15.3530000
 -69.6270000  42.4030000  13.6590000 -70.5690000  43.7110000  14.1940000
 -71.6290000  41.1790000  12.7740000 -70.8430000  40.4330000  12.6570000
 -72.5430000  40.8120000  12.3060000 -71.3250000  41.9520000  12.0680000
 -73.8090000  41.5030000  16.9690000 -74.4470000  40.4670000  16.8150000
 -74.3470000  42.6050000  17.4760000 -73.7150000  43.1620000  18.0340000
 -75.7780000  42.7400000  17.7370000 -76.0840000  41.7200000  17.9680000
 -75.9820000  43.7930000  18.8580000 -75.4500000  44.7100000  18.6020000
 -75.5940000  43.3110000  19.7560000 -77.3920000  44.1420000  19.3050000
 -77.8320000  44.6910000  18.4720000 -78.2300000  42.8900000  19.6710000
 -77.8720000  41.9170000  19.3360000 -78.4400000  42.7980000  20.7370000
 -79.1640000  43.0910000  19.1460000 -77.3620000  45.0900000  20.5160000
 -77.7160000  44.5970000  21.4220000 -76.4210000  45.6200000  20.6640000
 -78.0590000  45.8940000  20.2820000 -76.5610000  43.1180000  16.4910000
 -76.1910000  44.0640000  15.7910000 -77.6790000  42.4310000  16.2120000
 -78.2090000  41.9370000  16.9160000 -78.5130000  42.7780000  15.0850000
 -78.6970000  43.8480000  15.1810000 -77.8280000  42.4800000  13.7440000
 -78.5420000  42.5700000  12.9250000 -77.2400000  43.3720000  13.5280000
 -77.0280000  41.1440000  13.6240000 -76.9720000  40.6380000  14.5870000
 -77.6910000  40.1750000  12.6510000 -76.9380000  39.6890000  12.0310000
 -78.2130000  39.4180000  13.2360000 -78.2550000  40.7310000  11.9020000
 -75.6030000  41.4500000  13.1440000 -75.0400000  40.5910000  12.7770000
 -75.6790000  42.0610000  12.2440000 -75.0870000  42.0290000  13.9090000
 -79.9090000  42.1800000  15.1530000 -80.1530000  41.1850000  15.8370000
 -80.8490000  42.8300000  14.4530000 -80.6330000  43.3130000  13.5930000
 -82.2720000  42.5770000  14.5530000 -82.5860000  42.4820000  15.5920000
 -82.5200000  41.7600000  13.8760000 -83.0660000  43.7650000  14.0490000
 -82.5180000  44.8520000  13.8180000 -84.3740000  43.5550000  13.8670000
 -84.7660000  42.6260000  13.9310000 -85.2400000  44.6050000  13.3540000
 -84.7420000  44.9230000  12.4380000 -86.5890000  44.0150000  12.8900000
 -87.0330000  44.6810000  12.1500000 -86.4140000  43.1000000  12.3240000
 -87.3930000  43.8260000  13.6020000 -85.4770000  45.7840000  14.3230000
 -85.1800000  45.7430000  15.5200000 -86.0290000  46.8670000  13.7880000
 -85.6590000  47.1590000  12.8940000 -86.6470000  47.9250000  14.5580000
 -85.8080000  48.3250000  15.1270000 -87.1760000  49.0680000  13.6720000
 -87.1280000  49.9500000  14.3100000 -86.6280000  49.4670000  12.8180000
 -88.3770000  48.6440000  12.8150000 -88.4270000  47.4820000  12.3370000
 -89.2410000  49.5070000  12.5450000 -87.8110000  47.3900000  15.4370000
 -88.5160000  46.4400000  15.0550000 -88.0010000  47.9820000  16.6360000
 -87.5110000  48.8220000  16.9080000 -89.0030000  47.5140000  17.6020000
 -88.8020000  48.0140000  18.5500000 -90.4250000  47.9840000  17.1780000
 -90.7360000  47.6230000  16.1980000 -91.2330000  47.6610000  17.8350000
 -90.5880000  49.4790000  17.2980000 -90.7930000  49.9900000  18.3990000
 -90.5390000  50.1870000  16.1760000 -89.8240000  50.8870000  16.0370000
 -91.3960000  50.4450000  15.7090000 -88.9180000  45.9940000  17.8410000
 -89.9120000  45.3460000  18.1580000 -87.7060000  45.4480000  17.7440000
 -86.9670000  46.0970000  17.5140000 -87.4160000  44.0550000  18.1840000
 -88.3320000  43.4730000  18.2790000 -86.4630000  43.3790000  17.1680000
 -87.0540000  43.5370000  16.2660000 -86.1820000  42.3320000  17.0540000
 -85.1400000  43.8420000  17.3540000 -85.1360000  44.7510000  17.6650000
 -86.8210000  44.0950000  19.5670000 -86.3630000  43.0670000  20.0590000
 -86.7610000  45.2830000  20.2220000 -87.1540000  46.1850000  19.9910000
 -86.1900000  45.4160000  21.5110000 -86.2560000  46.4600000  21.8160000
 -86.8580000  44.8990000  22.1990000 -84.6890000  45.1820000  21.5300000
 -84.1090000  45.0550000  22.5890000 -84.0130000  45.2280000  20.3780000
 -84.4290000  45.8870000  19.7350000 -82.5430000  45.0840000  20.3410000
 -82.2140000  44.2450000  20.9540000 -82.0180000  44.9140000  18.9000000
 -80.9400000  44.9860000  19.0430000 -82.3200000  43.9810000  18.4250000
 -82.4430000  46.0080000  17.9020000 -83.4590000  46.3450000  17.6980000
 -82.1040000  46.9150000  18.4030000 -81.6360000  45.9720000  16.6170000
 -82.3750000  46.1930000  15.8470000 -81.1680000  45.0590000  16.2480000
 -80.3360000  46.8200000  16.7520000 -79.4790000  46.2540000  17.1190000
 -80.4580000  47.7210000  17.3520000 -80.0350000  47.4030000  15.4290000
 -79.4560000  48.2240000  15.3160000 -80.9200000  47.8210000  15.1810000
 -79.8030000  46.7320000  14.7110000 -81.8660000  46.2770000  21.0180000
 -80.6950000  46.1890000  21.3880000 -82.5870000  47.4110000  21.1680000
 -83.4330000  47.6580000  20.6740000 -82.0820000  48.5850000  21.8050000
 -81.0920000  48.7200000  21.3700000 -82.7670000  49.8540000  21.2430000
 -83.7110000  50.1660000  21.6880000 -82.9480000  49.9170000  20.1700000
 -81.8420000  50.8900000  21.2600000 -81.9720000  51.4410000  22.0350000
 -82.2590000  48.5000000  23.3410000 -81.5380000  49.1120000  24.1190000
 -83.2960000  47.7730000  23.7800000 -84.1260000  47.9200000  23.2240000
 -83.5850000  47.5850000  25.2070000 -83.5820000  48.5860000  25.6390000
 -85.0590000  47.2520000  25.4620000 -85.2940000  46.9950000  26.4950000
 -85.9620000  48.4940000  25.2270000 -86.1150000  49.0080000  26.1760000
 -86.9340000  48.0600000  24.9920000 -85.8590000  49.2910000  24.4900000
 -85.4850000  46.1820000  24.6400000 -85.5250000  45.3670000  25.1460000
 -82.6480000  46.5440000  25.8440000 -82.1890000  46.7220000  26.9690000
 -82.3250000  45.4730000  25.1000000 -82.5040000  45.5230000  24.1080000
 -81.3900000  44.4370000  25.5460000 -81.7730000  44.0560000  26.4930000
 -81.2360000  43.3150000  24.4770000 -80.9590000  43.7330000  23.5090000
 -80.0320000  42.3940000  24.7390000 -79.0830000  42.9220000  24.6480000
 -79.9420000  41.5860000  24.0120000 -80.0430000  41.9730000  25.7440000
 -82.5420000  42.4830000  24.4660000 -83.4020000  43.1240000  24.6580000
 -82.6160000  41.7910000  25.3050000 -82.7510000  41.7240000  23.1740000
 -82.9390000  40.6770000  23.4140000 -83.6820000  42.1660000  22.8200000
 -81.8820000  41.8230000  22.5240000 -80.0370000  45.0640000  25.8390000
 -79.3820000  44.6830000  26.8040000 -79.6130000  46.0230000  24.9980000
 -80.0340000  46.1230000  24.0860000 -78.3810000  46.7700000  25.2120000
 -77.6670000  46.0290000  25.5710000 -77.8310000  47.3200000  23.8810000
 -77.8300000  46.5090000  23.1530000 -78.6370000  48.4960000  23.2840000
 -77.9370000  49.2440000  22.9100000 -79.2430000  49.1540000  23.9080000
 -79.0840000  48.1790000  22.3420000 -76.3710000  47.7490000  24.0290000
 -75.9940000  47.9500000  23.0260000 -75.8450000  46.9540000  24.5560000
 -76.2540000  48.6820000  24.5810000 -78.5410000  47.8720000  26.2660000
 -77.5510000  48.2790000  26.8830000 -79.7790000  48.3670000  26.4840000
 -80.5350000  48.1810000  25.8400000 -80.0550000  49.3070000  27.5650000
 -79.3140000  50.0990000  27.4560000 -81.4570000  49.9320000  27.4520000
 -82.3080000  49.3060000  27.1860000 -81.6620000  50.1640000  28.4970000
 -81.5140000  51.2670000  26.7110000 -81.0310000  51.1430000  25.7430000
 -81.0140000  52.0780000  27.2410000 -82.9840000  51.7530000  26.6100000
 -83.6680000  51.1720000  25.9920000 -83.4690000  51.8400000  27.5820000
 -83.0630000  53.1780000  26.1020000 -84.1150000  53.4610000  26.1100000
 -82.6070000  53.9300000  26.7460000 -82.5330000  53.3390000  24.7240000
 -81.5820000  53.1530000  24.4390000 -83.2050000  52.9350000  24.0880000
 -82.6330000  54.3330000  24.5800000 -79.9160000  48.6570000  28.9510000
 -79.2390000  49.1750000  29.8140000 -80.5700000  47.5110000  29.1750000
 -81.5560000  47.5220000  28.9590000 -80.4580000  46.7450000  30.3700000
 -80.8990000  47.4660000  31.0580000 -81.3030000  45.4360000  30.2960000
 -82.3380000  45.5440000  29.9700000 -80.9300000  44.5600000  29.7660000
 -81.3470000  45.2520000  31.8380000 -81.3410000  46.0840000  32.5430000
 -80.5760000  44.5220000  32.0840000 -82.5010000  44.5690000  32.4690000
 -83.4340000  44.0850000  31.8430000 -82.4800000  44.5300000  33.8130000
 -83.2340000  44.9890000  34.3050000 -81.7720000  44.1850000  34.4450000
 -79.0060000  46.4130000  30.7470000 -78.5940000  46.5880000  31.8980000
 -78.2330000  45.9580000  29.7490000 -78.6720000  45.7160000  28.8720000
 -76.8090000  45.6620000  29.9390000 -76.7160000  44.9750000  30.7810000
 -76.1930000  45.0750000  28.6440000 -75.2160000  44.7870000  29.0320000
 -76.0430000  45.7960000  27.8400000 -76.8590000  43.7470000  28.1690000
 -77.3700000  43.3140000  29.0290000 -77.4500000  43.6570000  27.2570000
 -75.8310000  42.3310000  28.0900000 -75.3440000  42.3990000  26.4090000
 -74.6080000  41.6210000  26.6150000 -76.0890000  42.2050000  25.6370000
 -74.9600000  43.4140000  26.5130000 -75.9840000  46.8710000  30.4000000
 -74.9780000  46.6980000  31.1060000 -76.3990000  48.0900000  30.0120000
 -77.1390000  48.1760000  29.3290000 -75.8900000  49.3370000  30.5930000
 -74.9780000  49.0320000  31.1060000 -75.7710000  50.4550000  29.4680000
 -75.3490000  49.8890000  28.6370000 -76.5540000  50.9940000  28.9350000
 -74.8630000  51.6090000  29.9120000 -75.2250000  52.1960000  30.7550000
 -74.6970000  52.3150000  29.0980000 -73.4930000  51.0070000  30.2980000
 -73.1910000  50.1470000  29.7000000 -73.4470000  50.6870000  31.3390000
 -72.3920000  51.9660000  30.4200000 -72.3840000  52.5460000  31.2460000
 -71.4140000  52.1590000  29.5340000 -71.3790000  51.5060000  28.3600000
 -71.6620000  50.5800000  28.0730000 -70.8810000  51.9780000  27.6200000
 -70.4460000  53.0620000  29.8100000 -69.9650000  53.0870000  30.6970000
 -70.0450000  53.7470000  29.1850000 -76.7540000  49.8080000  31.7670000
 -76.4190000  49.4960000  32.9110000 -77.8360000  50.5860000  31.5130000
 -77.6940000  51.3100000  30.8240000 -78.9210000  51.1270000  32.3460000
 -78.6010000  50.8280000  33.3440000 -80.4030000  50.5590000  32.0640000
 -80.2010000  49.5080000  32.2670000 -81.5740000  50.9950000  33.1210000
 -81.2880000  51.5340000  34.0240000 -81.7840000  50.0300000  33.5830000
 -82.5150000  51.5250000  32.9760000 -80.8970000  51.0910000  30.6890000
 -80.1430000  51.1590000  29.9050000 -80.9800000  52.1760000  30.7530000
 -82.4250000  50.7780000  30.5940000 -83.1460000  50.5540000  29.8080000
 -82.9570000  51.6890000  30.8670000 -82.6230000  49.8980000  31.2060000
 -78.8360000  52.6840000  32.3020000 -79.7670000  52.5840000  32.9630000
 -79.4550000  53.8280000  32.6510000 -79.8750000  53.8190000  33.5690000
 -79.1950000  55.2800000  32.6570000 -80.1560000  55.5890000  33.0680000
 -79.5910000  56.0800000  31.4070000 -80.5080000  55.7400000  30.9240000
 -79.7840000  57.1440000  31.5380000 -78.3990000  55.9790000  30.5340000
 -77.2630000  56.8020000  30.8040000 -77.2860000  57.7210000  31.3720000
 -76.1030000  56.6900000  30.0470000 -75.2960000  57.3690000  30.2800000
 -76.0830000  55.7820000  28.9640000 -74.9660000  55.7120000  28.1890000
 -74.2370000  56.1880000  28.5930000 -77.2240000  54.9930000  28.6630000
 -77.2150000  54.3780000  27.7760000 -78.3890000  55.0750000  29.4370000
 -79.2440000  54.5510000  29.0360000 -78.2210000  55.9210000  33.7040000
 -78.0510000  54.7980000  34.1640000 -77.3910000  56.1400000  34.7240000
 -77.1020000  55.4500000  35.4020000 -76.9570000  57.4190000  35.1450000
 -75.9790000  56.9670000  35.3090000 -78.0120000  57.8690000  36.2450000
 -77.2550000  57.9030000  37.0290000 -78.5520000  57.5500000  37.1360000
 -79.3890000  58.3430000  35.7780000 -80.1440000  59.4190000  36.2160000
 -79.9240000  60.1140000  36.9150000 -81.3200000  59.4240000  35.5640000
 -82.1500000  60.1130000  35.6280000 -81.3730000  58.3980000  34.7330000
 -80.2200000  57.6680000  34.9050000 -80.5020000  56.6510000  35.1350000
 -76.3590000  58.6320000  34.3560000 -75.9650000  58.8770000  35.4790000
 -75.5260000  59.7220000  34.3220000 -75.0060000  60.0890000  35.1070000
 -75.2520000  60.7820000  33.3120000 -74.5590000  61.5580000  33.6360000
 -74.7820000  60.2520000  32.4830000 -76.4140000  61.6690000  32.8070000
 -77.1860000  60.9980000  33.4540000 -77.6470000  62.1410000  32.7360000
 -78.0940000  62.2410000  33.6370000 -78.1810000  63.2560000  32.0020000
 -77.5770000  63.9870000  32.5400000 -79.1710000  62.8100000  32.0940000
 -78.1140000  63.7280000  30.5320000 -77.1190000  63.0050000  30.4940000
 -79.1620000  64.4960000  30.9830000 -79.0060000  65.0380000  31.8200000
 -80.0420000  65.4220000  30.3170000 -80.6590000  65.7930000  31.1360000
 -81.1760000  64.7710000  29.4720000 -80.7880000  64.1480000  28.6650000
 -81.9190000  65.4290000  29.0210000 -81.9690000  63.9470000  30.2970000
 -81.5680000  63.8130000  31.1590000 -79.1860000  66.5840000  29.8140000
 -80.2590000  67.1700000  29.8380000 -78.9090000  67.7990000  29.5100000
 -79.3760000  68.5180000  30.0430000 -77.7120000  68.4060000  29.1540000
 -77.3090000  68.5660000  30.1540000 -77.4080000  67.4650000  28.6930000
 -77.5710000  69.9220000  28.6390000 -78.7780000  69.9120000  28.7290000
 -76.2540000  69.7740000  28.5910000 -75.8950000  70.7040000  28.4290000
 -75.3040000  68.6820000  28.8600000 -75.1850000  68.6340000  29.9420000
 -74.3720000  69.1960000  28.6240000 -75.2660000  67.3390000  28.0230000
 -74.4580000  67.1470000  28.9530000 -76.1950000  67.6920000  27.0020000
 -76.4350000  68.5420000  26.5110000 -75.7540000  66.6780000  25.9740000
 -76.0060000  66.9950000  24.9620000 -76.6480000  65.4020000  25.7960000
 -76.5640000  64.7180000  26.6410000 -76.4630000  64.8060000  24.9020000
 -78.0070000  65.7830000  25.6290000 -78.2590000  66.4670000  26.2530000
 -74.1940000  66.6780000  25.6180000 -74.0870000  67.8560000  25.8440000
 -72.9710000  67.2690000  25.5340000 -72.6910000  68.1900000  25.8390000
 -71.7780000  66.6760000  25.0430000 -71.4710000  65.9660000  25.8110000
 -71.0090000  67.4400000  24.9320000 -71.8440000  66.1520000  23.6400000
 -72.9700000  66.0220000  23.1010000 -70.6900000  66.1430000  22.9050000
 -69.8100000  65.9180000  23.3470000 -70.9710000  64.9600000  21.9980000
 -71.3260000  65.5790000  21.1740000 -70.1140000  64.4780000  21.5260000
 -71.7350000  63.7220000  22.6650000 -71.3150000  63.1260000  23.7130000
 -72.7120000  63.5020000  21.7810000 -73.0110000  64.1980000  21.1130000
 -73.4190000  62.3430000  21.4830000 -74.3730000  62.8430000  21.6470000
 -72.1180000  62.0510000  20.5670000 -71.2470000  61.8090000  21.1760000
 -72.2220000  60.8190000  19.6710000 -71.8400000  61.1080000  18.6920000
 -71.6020000  59.9510000  19.8930000 -73.2670000  60.6350000  19.4230000
 -71.7630000  63.0550000  19.6010000 -70.8310000  62.9470000  19.3970000
 -73.4520000  60.8970000  21.9070000 -72.4150000  60.2830000  22.2230000
 -74.7000000  60.3640000  21.8280000 -75.4930000  60.9430000  21.5890000
 -75.3010000  59.1070000  22.1150000 -74.4730000  59.1440000  22.8220000
 -75.7170000  58.3630000  20.7990000 -76.7160000  58.2140000  21.2070000
 -76.3070000  58.4480000  19.8860000 -74.6300000  57.7540000  20.1520000
 -74.4520000  58.2230000  19.3330000 -75.8470000  58.4070000  23.3640000
 -76.4500000  59.0330000  24.2250000 -75.6000000  57.0940000  23.3460000
 -75.3610000  56.8120000  22.4070000 -75.8240000  55.9400000  24.2420000
 -76.8610000  55.6300000  24.1150000 -75.6210000  56.1710000  25.2870000
 -74.9130000  54.7990000  23.7340000 -74.8650000  53.6890000  24.2330000
 -74.1150000  55.1380000  22.7680000 -73.5440000  55.6130000  23.4530000
 -73.1180000  54.5090000  21.9310000 -73.4190000  55.0270000  21.0200000
 -71.7020000  54.8930000  22.5570000 -71.7660000  54.2520000  23.4360000
 -70.3210000  54.3630000  22.1160000 -69.5270000  55.1080000  22.1630000
 -70.1260000  54.0660000  21.0860000 -69.9590000  53.6310000  22.8380000
 -71.4710000  56.3650000  22.9860000 -70.4970000  56.8080000  22.7770000
 -71.3710000  56.4410000  24.0690000 -72.5330000  57.2510000  22.4230000
 -71.9230000  58.0470000  21.9950000 -72.9310000  57.6580000  23.3530000
 -72.9420000  57.0140000  21.4410000 -73.1390000  53.3540000  20.9440000
 -72.0180000  53.1610000  20.6630000 -74.1350000  52.7290000  20.2680000
 -75.0930000  52.9330000  20.5150000 -73.8970000  51.6220000  19.2930000
 -74.8670000  51.1240000  19.2670000 -73.5420000  52.1700000  17.8690000
 -73.4460000  51.4200000  17.0840000 -74.3960000  52.7680000  17.5490000
 -72.3400000  53.1000000  17.8460000 -72.4240000  54.4180000  18.3490000
 -73.3080000  54.9670000  18.0570000 -71.3120000  55.2660000  18.3800000
 -71.3430000  56.3220000  18.6030000 -70.1400000  54.8580000  17.7730000
 -69.3320000  55.5590000  17.6280000 -70.0740000  53.6240000  17.1600000
 -69.3730000  53.5730000  16.3400000 -71.1480000  52.7390000  17.1950000
 -71.1300000  52.0430000  16.3690000 -72.8530000  50.5930000  19.8300000
 -73.1720000  49.4290000  20.0070000 -71.5830000  50.9130000  20.0230000
 -71.1980000  51.5700000  19.3600000 -70.5790000  50.2440000  20.7260000
 -70.5710000  49.2860000  20.2070000 -69.2060000  50.8420000  20.4680000
 -68.8910000  50.4020000  21.4140000 -68.4600000  51.5130000  20.8940000
 -68.6600000  51.0610000  19.0400000 -68.8590000  50.1870000  18.4190000
 -69.0350000  51.9490000  18.5320000 -67.2590000  51.6760000  18.9720000
 -66.7480000  51.8530000  17.8430000 -66.6390000  52.0560000  19.9990000
 -70.8740000  50.0880000  22.2170000 -71.0400000  51.0800000  22.9270000
 -70.8170000  48.8590000  22.7130000 -69.9610000  48.3980000  22.4400000
 -71.2130000  48.5350000  24.0750000 -71.0830000  49.4510000  24.6500000
 -72.6740000  48.0380000  24.1430000 -72.8500000  47.2440000  23.4170000
 -73.0920000  47.8410000  25.6550000 -72.3490000  47.3320000  26.2680000
 -73.2110000  48.8320000  26.0930000 -74.0110000  47.3190000  25.9240000
 -73.5250000  48.9630000  23.5260000 -73.4610000  49.8270000  23.9380000
 -70.2860000  47.4670000  24.6270000 -70.2200000  46.3640000  24.0960000
 -69.5720000  47.7950000  25.7120000 -69.7590000  48.6180000  26.2670000
 -68.6230000  46.9050000  26.3040000 -68.7990000  45.9440000  25.8220000
 -67.2070000  47.5180000  26.2330000 -66.7970000  47.1990000  25.2740000
 -66.8220000  47.2050000  27.2040000 -66.9070000  49.0330000  26.0600000
 -67.2720000  49.5110000  25.1510000 -67.3460000  49.5940000  26.8860000
 -65.4060000  49.3220000  26.0460000 -65.2850000  50.1850000  26.7000000
 -65.0790000  49.7470000  25.0970000 -64.4460000  48.1330000  26.3880000
 -64.5680000  47.0500000  26.3680000 -64.6540000  48.1870000  27.4560000
 -63.0310000  48.5130000  26.4630000 -62.5230000  48.8600000  25.6620000
 -62.9620000  49.3350000  27.0460000 -62.4700000  47.8320000  26.9560000
 -69.0000000  46.6050000  27.7400000 -69.0760000  47.5290000  28.5580000
 -69.2660000  45.3240000  28.0540000 -69.3130000  44.5630000  27.3920000
 -69.6800000  44.9430000  29.4020000 -69.5720000  45.7960000  30.0720000
 -71.1600000  44.5320000  29.4070000 -71.5650000  44.3650000  30.4050000
 -71.7100000  45.4210000  29.0970000 -71.4760000  43.3710000  28.4860000
 -71.8000000  43.5820000  27.1380000 -72.0510000  44.5570000  26.7470000
 -72.0860000  42.5050000  26.3010000 -72.2460000  42.6750000  25.2470000
 -72.0870000  41.2060000  26.8280000 -71.9750000  40.3190000  26.2220000
 -71.8410000  40.9890000  28.1740000 -71.8230000  39.9750000  28.5460000
 -71.5550000  42.0820000  29.0000000 -71.7930000  42.0680000  30.0530000
 -68.8020000  43.8620000  30.0070000 -68.1460000  43.0950000  29.2960000
 -68.8010000  43.8080000  31.3520000 -69.4660000  44.3060000  31.9270000
 -67.9540000  42.9420000  32.1440000 -67.1130000  42.6590000  31.5100000
 -67.3320000  43.7610000  33.3040000 -67.9990000  44.2760000  33.9960000
 -66.8120000  44.5720000  32.7940000 -66.3580000  42.9960000  34.2220000
 -66.6810000  41.9700000  34.3990000 -66.3240000  43.4070000  35.2310000
 -64.9310000  43.0130000  33.6900000 -64.6570000  42.4290000  32.6440000
 -64.0140000  43.6740000  34.4150000 -63.9850000  44.6830000  34.4190000
 -63.2380000  43.3060000  34.9470000 -68.8130000  41.7960000  32.7080000
 -69.8010000  42.0760000  33.4010000 -68.4430000  40.5370000  32.4570000
 -67.6350000  40.3750000  31.8720000 -69.0670000  39.3920000  33.1520000
 -69.4860000  39.7890000  34.0770000 -70.1790000  38.7110000  32.3100000
 -69.8680000  38.5040000  31.2870000 -70.7060000  37.4220000  32.9840000
 -70.8810000  36.6090000  32.2790000 -71.6010000  37.7740000  33.4960000
 -70.1530000  37.0060000  33.8270000 -71.3710000  39.6600000  32.1110000
 -72.1880000  39.0670000  31.6990000 -71.0690000  40.3900000  31.3600000
 -71.7240000  40.2140000  32.9800000 -68.0240000  38.3540000  33.5590000
 -67.2170000  37.9310000  32.7270000 -68.0190000  37.9560000  34.8540000
 -68.5640000  38.3880000  35.5870000 -67.0470000  37.0110000  35.4020000
 -67.0550000  37.0570000  36.4910000 -67.3570000  35.5460000  34.9660000
 -66.7660000  34.9850000  35.6890000 -67.0560000  35.1470000  33.9970000
 -68.7010000  35.0220000  35.4420000 -69.2840000  35.5950000  36.3950000
 -69.1400000  33.9660000  34.9370000 -65.6190000  37.4320000  35.0970000
 -64.7810000  36.5830000  34.7830000 -65.3200000  38.7490000  35.2220000
 -65.8240000  39.2800000  35.9180000 -64.0070000  39.3410000  34.8360000
 -64.0260000  40.4300000  34.8370000 -63.0100000  38.9420000  35.9020000
 -63.3010000  37.8960000  35.9910000 -63.3660000  39.5880000  36.7050000
 -61.4870000  39.0970000  36.1440000 -60.5450000  38.8040000  35.6800000
 -61.3700000  40.1760000  36.0390000 -61.5170000  38.0390000  37.3630000
 -61.8200000  38.6750000  38.1960000 -62.1580000  37.1590000  37.4210000
 -60.2760000  37.3660000  37.9080000 -60.4980000  36.5770000  38.6270000
 -59.7180000  36.8590000  37.1200000 -59.3780000  38.2670000  38.6520000
 -58.4360000  38.0970000  38.3280000 -59.3840000  38.0040000  39.6270000
 -59.4890000  39.2700000  38.6110000 -63.5620000  38.9510000  33.4420000
 -62.3810000  38.6740000  33.2340000 -64.4800000  38.9980000  32.4790000
 -65.1980000  39.6840000  32.6610000 -64.2050000  38.6890000  31.0670000
 -63.1200000  38.6850000  30.9590000 -64.7950000  37.3200000  30.6170000
 -65.8850000  37.3120000  30.5990000 -64.3670000  37.0230000  29.1600000
 -63.2950000  37.0410000  28.9630000 -64.7660000  37.8290000  28.5450000
 -64.8680000  36.1370000  28.7700000 -64.3480000  36.1960000  31.5520000
 -64.9230000  35.2700000  31.5540000 -64.1800000  36.4650000  32.5940000
 -63.3840000  35.9790000  31.0920000 -64.8210000  39.7860000  30.1970000
 -66.0490000  39.9030000  30.1330000 -63.9800000  40.5960000  29.5350000
 -62.9800000  40.4820000  29.6180000 -64.4800000  41.7290000  28.7650000
 -65.1700000  42.2100000  29.4590000 -63.3730000  42.7710000  28.4710000
 -63.7370000  43.5990000  27.8630000 -62.4250000  42.3430000  28.1460000
 -63.0790000  43.6370000  29.6450000 -63.9980000  44.1780000  30.2670000
 -61.8030000  43.8470000  29.9750000 -61.6480000  44.2600000  30.8830000
 -60.9330000  43.7810000  29.4660000 -65.1920000  41.2850000  27.4740000
 -64.6840000  40.4370000  26.7260000 -66.3400000  41.9050000  27.2220000
 -66.4510000  42.7920000  27.6910000 -67.0860000  41.7860000  25.9670000
 -66.5970000  41.0910000  25.2840000 -68.4790000  41.1950000  26.1520000
 -68.9960000  41.7520000  26.9330000 -69.0220000  41.3400000  25.2190000
 -68.4900000  39.7640000  26.6350000 -68.4850000  39.5050000  28.0200000
 -68.5590000  40.2590000  28.7890000 -68.4560000  38.2070000  28.4870000
 -68.0520000  38.1220000  29.4840000 -68.5420000  37.1260000  27.6010000
 -68.4970000  36.1020000  27.9420000 -68.5520000  37.3680000  26.2300000
 -68.3930000  36.5570000  25.5350000 -68.5290000  38.6660000  25.7470000
 -68.4460000  38.7060000  24.6710000 -67.2340000  43.1800000  25.3440000
 -67.3540000  44.1760000  26.0660000 -67.2520000  43.2630000  24.0070000
 -66.6370000  42.6830000  23.4550000 -67.4710000  44.4740000  23.2340000
 -67.8770000  45.3700000  23.7050000 -66.1070000  44.9720000  22.6610000
 -65.6520000  44.3370000  21.9000000 -66.3010000  45.8980000  22.1210000
 -64.9410000  45.3930000  23.4960000 -63.7470000  44.8220000  23.4220000
 -62.8500000  45.4400000  24.1580000 -61.8800000  45.4250000  23.6830000
 -63.3750000  46.4910000  24.6040000 -62.6770000  47.1720000  24.3400000
 -64.6640000  46.5570000  24.1090000 -64.8090000  47.4400000  23.5040000
 -68.4740000  44.1730000  22.1220000 -68.1270000  43.6070000  21.0940000
 -69.7340000  44.4850000  22.3520000 -69.9650000  44.1890000  23.2900000
 -70.8400000  44.3910000  21.3880000 -70.6400000  43.5930000  20.6730000
 -72.1210000  44.2310000  22.2090000 -71.9860000  43.4000000  22.9010000
 -72.2480000  45.1940000  22.7060000 -73.3570000  43.6990000  21.4740000
 -73.2580000  42.7650000  20.9210000 -73.7690000  44.5650000  20.9570000
 -74.5600000  43.0560000  22.6210000 -74.8620000  44.4580000  23.6750000
 -74.5470000  44.4390000  24.7180000 -75.9250000  44.2550000  23.5420000
 -74.5250000  45.3860000  23.2130000 -70.9540000  45.5610000  20.4240000
 -70.5630000  46.6710000  20.7880000 -71.4660000  45.3700000  19.1760000
 -71.5630000  44.5120000  18.6530000 -71.6510000  46.4330000  18.2100000
 -71.5530000  47.4030000  18.6970000 -70.6080000  46.3710000  17.0550000
 -70.4740000  45.5420000  16.3590000 -70.9090000  47.1750000  16.3840000
 -69.2220000  46.6390000  17.4840000 -68.7010000  47.9420000  17.4710000
 -68.9400000  48.5380000  16.6020000 -67.3740000  48.1820000  17.8670000
 -66.7880000  49.0830000  17.7560000 -66.5500000  47.1250000  18.1390000
 -65.4940000  47.2980000  18.2870000 -67.0150000  45.8390000  18.0690000
 -66.2480000  45.0850000  18.1710000 -68.3280000  45.5740000  17.7160000
 -68.4350000  44.5520000  17.3840000 -73.0260000  46.3380000  17.5610000
 -73.3730000  45.2760000  17.0450000 -73.7810000  47.4450000  17.5230000
 -73.3300000  48.3400000  17.3990000 -75.1870000  47.4830000  17.1130000
 -75.7420000  46.5590000  17.2760000 -75.9800000  48.4660000  17.9920000
 -75.8040000  48.3950000  19.0650000 -75.9070000  49.4730000  17.5820000
 -77.4670000  48.3380000  17.7870000 -77.9250000  48.6210000  16.6570000
 -78.1810000  48.0160000  18.7580000 -75.2760000  47.8950000  15.6370000
 -74.8650000  49.0130000  15.2920000 -75.8470000  47.0390000  14.7730000
 -76.5870000  46.4110000  15.0540000 -75.7980000  47.2490000  13.3680000
 -75.5370000  48.3040000  13.2970000 -74.6190000  46.7070000  12.6320000
 -74.7580000  46.7790000  11.5540000 -73.3780000  47.4970000  13.0190000
 -72.9040000  47.2060000  13.9560000 -73.4790000  48.5590000  13.2440000
 -72.6270000  47.1200000  12.3250000 -74.3980000  45.2270000  12.9150000
 -75.2760000  44.7690000  12.4580000 -73.5590000  44.9110000  12.2950000
 -74.1350000  44.9180000  13.9260000 -77.0460000  46.8740000  12.6530000
 -77.6480000  45.7680000  12.6180000 -77.4570000  48.2170000  12.2330000
 -77.1290000  48.7190000  13.0460000 -78.6960000  49.1820000  11.3730000
 -79.1120000  48.9010000  12.3410000 -78.6810000  48.1540000  11.0100000
 -78.3260000  49.8790000  10.5840000 -79.4280000  50.0630000  10.2010000
 -77.1710000  50.3700000  10.5160000 -76.7850000  50.6360000  11.4100000
 -77.1590000  51.5180000   9.6340000 -77.6780000  51.4960000   8.6760000
 -77.6760000  52.2800000  10.2160000 -75.7890000  51.9880000   9.2050000
 -75.7500000  53.0040000   8.5080000 -74.7010000  51.3270000   9.6210000
 -74.7500000  50.7980000  10.4800000 -73.3110000  51.6170000   9.1870000
 -72.8610000  50.6360000   9.3380000 -72.4940000  52.3930000  10.2560000
 -72.0440000  53.2390000   9.7360000 -73.1050000  52.8730000  11.0200000
 -71.4550000  51.6120000  11.0950000 -70.9630000  52.3340000  11.7480000
 -70.6620000  51.2210000  10.4570000 -71.9810000  50.5660000  12.0540000
 -71.8230000  50.7250000  13.2750000 -72.4490000  49.4370000  11.5460000
 -73.0920000  49.0270000  10.8840000 -71.5940000  48.9250000  11.3820000
 -72.8010000  51.5010000   7.7470000 -73.8930000  50.9980000   7.4670000
 -72.7070000  51.2890000   6.4700000 -73.4520000  51.8520000   6.0860000
 -71.5500000  51.3580000   5.5710000 -71.8400000  52.3240000   5.1570000
 -71.6550000  49.8000000   5.1820000 -70.7810000  49.5070000   4.5990000
 -71.5740000  49.0630000   5.9810000 -73.0140000  49.6360000   4.5860000
 -72.7130000  49.9670000   3.5910000 -73.8750000  50.2850000   4.7470000
 -73.6330000  48.3300000   4.4360000 -74.5630000  48.4160000   3.8740000
 -73.9560000  48.1020000   5.4520000 -72.9420000  47.3190000   3.6030000
 -72.4800000  47.5360000   2.7310000 -73.2060000  46.0470000   3.8560000
 -74.0520000  45.6410000   4.8240000 -74.1300000  45.8500000   5.8090000
 -74.5320000  44.7700000   4.6470000 -72.6590000  45.1090000   3.0980000
 -73.2380000  44.7330000   2.3600000 -71.6590000  45.0290000   2.9810000
 -70.0700000  51.2030000   5.9910000 -70.4890000  50.6770000   7.0470000
 -69.8340000  51.7830000   4.7430000 -70.3900000  52.3700000   4.1380000
 -68.4650000  52.4030000   4.5600000 -68.6590000  53.1770000   3.8180000
 -67.4050000  51.8180000   3.6070000 -66.9110000  52.5770000   3.0000000
 -66.7610000  51.3290000   4.3370000 -67.6800000  50.7690000   2.5530000
 -68.8010000  50.2450000   2.4010000 -66.6950000  50.4750000   1.8400000
 -67.9540000  53.5120000   5.5260000 -69.0410000  53.5280000   5.9680000
 -68.2370000  54.4670000   6.4530000 -69.1830000  54.7350000   6.6880000
 -67.6130000  55.5150000   7.2020000 -68.2410000  56.3050000   7.6150000
 -67.0100000  54.6240000   8.3430000 -67.8180000  54.0980000   8.8520000
 -66.3320000  53.8610000   7.9590000 -66.1990000  55.2970000   9.4500000
 -65.6440000  56.1610000   9.0840000 -65.4650000  54.6240000   9.8930000
 -67.0390000  55.7690000  10.6210000 -67.2100000  54.9430000  11.5500000
 -67.4890000  56.9440000  10.6380000 -66.8610000  56.2840000   6.1150000
 -66.5320000  57.4500000   6.3280000 -66.6000000  55.6890000   4.9170000
 -66.3230000  54.7180000   4.9430000 -65.9520000  56.3020000   3.8220000
 -66.5800000  57.1890000   3.7430000 -64.4140000  56.0890000   4.2920000
 -64.1460000  55.0920000   4.6430000 -64.3940000  56.7580000   5.1520000
 -63.1400000  56.5800000   3.5050000 -62.5250000  56.8740000   4.3560000
 -62.5110000  55.8290000   3.0280000 -63.0410000  57.8690000   2.6620000
 -63.6030000  58.6780000   3.1290000 -62.0030000  58.1980000   2.6940000
 -63.3180000  57.7000000   1.2190000 -62.4970000  57.2560000   0.8310000
 -63.7840000  58.5590000   0.3160000 -63.9160000  59.8550000   0.6070000
 -64.6630000  60.2780000   1.1390000 -63.3340000  60.5620000   0.1810000
 -64.0160000  58.1730000  -0.9450000 -63.3290000  57.7610000  -1.5610000
 -64.6530000  58.7380000  -1.4880000 -65.7660000  55.5700000   2.4910000
 -65.4140000  56.7000000   2.2720000 -65.3130000  55.6310000   1.2310000
 -66.1030000  56.1650000   0.8970000 -64.9200000  55.0120000  -0.0630000
 -64.2130000  55.7490000  -0.4430000 -65.8430000  55.1420000  -1.3640000
 -65.2220000  55.2110000  -2.2570000 -66.4040000  56.0730000  -1.4440000
 -66.8670000  54.0220000  -1.6260000 -67.7570000  54.2880000  -1.0550000
 -67.1770000  54.0970000  -2.6680000 -66.3310000  52.6060000  -1.3110000
 -66.1050000  52.7300000  -0.2520000 -65.6510000  52.3940000  -2.1360000
 -67.1460000  51.3590000  -1.3340000 -67.0990000  50.7990000  -0.4950000
 -68.3440000  51.0710000  -1.8050000 -69.1250000  52.0150000  -2.3220000
 -69.9150000  52.4040000  -1.8270000 -69.2790000  52.0730000  -3.3190000
 -68.8230000  49.8200000  -1.7530000 -69.4610000  49.5680000  -2.4940000
 -68.8550000  49.1180000  -1.0270000 -63.8540000  53.9500000   0.0460000
 -63.4020000  53.4480000  -0.9880000 -63.3760000  53.6310000   1.2790000
 -63.7670000  53.9110000   2.1680000 -62.3070000  52.6750000   1.4910000
 -61.4910000  53.1600000   0.9560000 -63.0320000  51.2510000   1.4240000
 -62.4810000  50.3540000   1.7070000 -63.9110000  51.4730000   2.0300000
 -63.5640000  50.7870000   0.1870000 -64.0460000  51.1880000  -0.7050000
 -62.5720000  50.8620000  -0.2580000 -64.1450000  49.4290000   0.4500000
 -63.2830000  48.7620000   0.4310000 -64.7050000  49.2590000   1.3690000
 -64.9360000  48.9010000  -0.7390000 -64.1210000  48.5750000  -1.3840000
 -65.5510000  49.4390000  -1.4610000 -65.6450000  47.6730000  -0.3420000
 -66.3690000  47.7090000   0.3610000 -65.0460000  46.9230000  -0.0280000
 -66.0650000  47.3170000  -1.1890000 -61.8690000  52.2510000   2.9050000
 -60.9230000  51.7750000   2.2570000 -61.1590000  51.4750000   3.7350000
 -60.5830000  50.7660000   3.3040000 -61.0500000  51.0690000   5.1230000
 -60.1430000  50.4710000   5.0340000 -60.3070000  51.7070000   6.2750000
 -61.1940000  51.8480000   6.8930000 -60.1010000  52.6840000   5.8370000
 -59.0430000  51.7450000   7.1010000 -57.6690000  51.7410000   6.9870000
 -57.0270000  51.6390000   6.1250000 -57.1880000  52.0090000   8.2740000
 -56.2020000  51.9970000   8.4900000 -58.1960000  52.2450000   9.2100000
 -58.2720000  52.5930000  10.5730000 -57.3810000  52.8620000  11.1210000
 -59.5320000  52.7330000  11.1780000 -59.5870000  53.0020000  12.2220000
 -60.7090000  52.5650000  10.4720000 -61.6250000  52.7150000  11.0230000
 -60.6510000  52.2940000   9.1290000 -61.6280000  52.5750000   8.7660000
 -59.3850000  52.0860000   8.4590000 -62.0120000  50.1060000   5.7270000
 -61.6790000  49.7530000   6.8340000 -63.1490000  49.6280000   5.3100000
 -63.8450000  50.2500000   4.9240000 -63.6310000  48.4650000   6.0090000
 -64.6450000  48.2930000   5.6470000 -62.6670000  47.4540000   5.3200000
 -61.7390000  47.5540000   5.8830000 -62.2950000  47.9320000   3.8390000
 -62.2420000  47.0290000   3.2300000 -61.2800000  48.3140000   3.7240000
 -63.1090000  48.4560000   3.3390000 -62.7120000  45.9370000   5.3850000
 -61.7840000  45.4960000   5.0200000 -63.4950000  45.6190000   4.6970000
 -62.9580000  45.3080000   6.7270000 -63.9860000  44.9450000   6.7350000
 -62.5690000  44.3000000   6.5830000 -62.2230000  45.5180000   7.5040000
 -63.9180000  48.6610000   7.5510000 -63.8220000  49.7090000   8.2020000
 -64.2890000  47.5520000   8.0660000 -63.5570000  46.9390000   7.7390000
 -64.6970000  47.0560000   9.4220000 -64.4570000  45.9930000   9.4440000
 -66.2330000  47.3310000   9.1810000 -67.1870000  47.0560000   9.6300000
 -66.3550000  48.4060000   9.0460000 -66.1560000  46.1540000   8.1070000
 -66.3180000  46.8950000   7.3250000 -65.6080000  45.2460000   8.3600000
 -67.0080000  45.2830000   7.3620000 -67.1000000  45.4170000   6.1330000
 -67.6620000  44.3710000   8.0620000 -67.3910000  43.4760000   8.4430000
 -68.6630000  44.4480000   7.9500000 -63.5610000  47.2820000  10.5210000
 -62.7570000  47.6630000   9.6730000 -64.5300000  46.8490000  11.2750000
 -65.1100000  47.6550000  11.4570000 -64.4420000  46.3520000  12.6080000
 -64.4390000  47.1020000  13.4000000 -65.3270000  45.0890000  12.2610000
 -65.1870000  44.4480000  11.3910000 -65.6920000  44.6710000  13.2000000
 -66.8030000  45.2650000  11.5500000 -68.0400000  45.5460000  11.9710000
 -63.5840000  45.1960000  13.0820000 -63.5670000  44.8880000  14.2860000
 -62.9720000  44.5360000  12.0580000 -62.4810000  45.2710000  11.5710000
 -62.3300000  43.2770000  11.8490000 -62.2810000  43.0990000  12.9230000
 -60.7560000  43.3580000  11.6600000 -60.3780000  44.3230000  11.9970000
 -60.1560000  42.6800000  12.2650000 -60.1930000  43.1140000  10.2850000
 -60.0800000  44.1670000   9.3400000 -59.9460000  45.1960000   9.6400000
 -59.5200000  43.9250000   8.0740000 -59.1210000  44.7140000   7.4540000
 -59.0270000  42.6670000   7.7430000 -58.4280000  42.5260000   6.8560000
 -59.0790000  41.6320000   8.6620000 -58.5610000  40.7210000   8.4020000
 -59.6140000  41.8580000   9.9310000 -59.1730000  41.1560000  10.6230000
 -63.1120000  41.9810000  11.5230000 -62.3900000  41.0320000  11.3200000
 -64.4630000  41.7530000  11.4910000 -65.2090000  42.2080000  11.9970000
 -64.9130000  40.4090000  11.1530000 -65.9840000  40.3590000  11.3490000
 -64.6720000  40.1360000   9.6480000 -63.6570000  39.7710000   9.4880000
 -64.8770000  41.0050000   9.0230000 -65.6740000  39.1640000   9.0650000
 -66.8700000  39.2520000   9.3520000 -65.2220000  38.2580000   8.1940000
 -64.8210000  37.3730000   8.4690000 -65.0860000  38.4530000   7.2120000
 -64.3150000  39.2790000  12.0300000 -64.5910000  38.1200000  11.7210000
 -63.6180000  39.5600000  13.1550000 -63.7390000  40.4570000  13.6040000
 -63.1740000  38.5540000  14.1090000 -63.2660000  37.5490000  13.6980000
 -61.6890000  38.7160000  14.5730000 -61.2760000  37.7180000  14.4310000
 -61.5460000  38.8310000  15.6480000 -60.5500000  39.4340000  13.8520000
 -60.7070000  39.8610000  12.7130000 -59.4270000  39.5210000  14.4160000
 -64.1360000  38.5330000  15.3080000 -63.7420000  38.3960000  16.4710000
 -65.4350000  38.6520000  15.0110000 -65.7300000  38.7370000  14.0480000
 -66.4800000  38.6020000  16.0000000 -66.1680000  39.3890000  16.6860000
 -67.8130000  39.0930000  15.4100000 -67.6350000  40.0300000  14.8830000
 -68.4700000  38.1050000  14.4380000 -68.9970000  38.6800000  13.6760000
 -67.7690000  37.5440000  13.8200000 -69.0920000  37.3850000  14.9680000
 -68.7840000  39.4220000  16.5210000 -69.7990000  39.1000000  16.2890000
 -68.6890000  40.4990000  16.6590000 -68.4660000  38.8230000  17.3740000
 -66.5860000  37.1470000  16.5290000 -66.6330000  36.1940000  15.7410000
 -66.5700000  36.9610000  17.8400000 -65.9180000  37.5980000  18.2770000
 -66.7510000  35.6140000  18.4320000 -66.1040000  34.9110000  17.9070000
 -66.3800000  35.5640000  19.9390000 -66.3110000  34.5090000  20.2040000
 -65.0090000  36.2640000  20.2180000 -64.4930000  35.6080000  20.9190000
 -64.8390000  37.2850000  20.5590000 -64.3630000  36.1280000  19.3500000
 -67.3970000  36.1280000  20.7450000 -67.0160000  36.6550000  21.4510000
 -68.1620000  35.0650000  18.1820000 -68.3100000  33.8660000  17.9110000
 -69.1970000  35.9180000  18.2350000 -69.1000000  36.7150000  18.8480000
 -70.5600000  35.4840000  17.9370000 -70.4680000  34.7980000  17.0950000
 -71.1080000  34.7160000  19.1510000 -71.4690000  35.4390000  19.8830000
 -70.2870000  34.1920000  19.6400000 -71.9100000  34.0180000  18.9100000
 -71.5160000  36.6310000  17.5730000 -71.2920000  37.7970000  17.9140000
 -72.6290000  36.2740000  16.9310000 -73.0600000  35.4260000  17.2710000
 -73.6100000  37.2180000  16.4200000 -73.1930000  38.2250000  16.4300000
 -73.9550000  36.9670000  14.9410000 -74.0920000  35.8980000  14.7820000
 -75.2350000  37.7560000  14.5270000 -76.1340000  37.2910000  14.9320000
 -75.2290000  38.7940000  14.8590000 -75.4000000  37.7390000  13.4490000
 -72.7790000  37.3920000  14.0420000 -72.8980000  38.4300000  13.7310000
 -71.8240000  37.3120000  14.5620000 -72.8000000  36.7520000  12.6510000
 -71.9080000  37.1270000  12.1490000 -72.7880000  35.6630000  12.6870000
 -73.6760000  37.0120000  12.0580000 -74.8690000  37.1040000  17.2810000
 -75.5530000  36.0840000  17.2470000 -75.1660000  38.1230000  18.0700000
 -74.4040000  38.7310000  18.3350000 -76.4340000  38.2080000  18.7940000
 -76.6630000  37.1930000  19.1180000 -76.2920000  39.1840000  19.9890000
 -75.9270000  40.1660000  19.6860000 -77.6490000  39.3410000  20.7150000
 -77.6550000  40.2310000  21.3450000 -78.5320000  39.3530000  20.0770000
 -77.7740000  38.4600000  21.3450000 -75.2250000  38.6500000  20.9770000
 -75.6770000  37.9040000  21.6310000 -74.3640000  38.1780000  20.5040000
 -74.6430000  39.7190000  21.8940000 -73.5730000  39.8000000  21.7020000
 -74.7680000  39.4720000  22.9480000 -75.1150000  40.6940000  21.7750000
 -77.5690000  38.6260000  17.8540000 -77.5340000  39.7210000  17.2960000
 -78.5980000  37.7880000  17.7070000 -78.9670000  37.3630000  18.5450000
 -79.7030000  38.0170000  16.8110000 -79.4210000  38.9110000  16.2550000
 -79.9130000  36.9690000  15.7280000 -79.8610000  35.9900000  15.2530000
 -78.9310000  36.5660000  15.9720000 -80.8300000  37.3400000  14.6270000
 -80.5830000  38.4470000  13.8110000 -80.2800000  39.4050000  14.2060000
 -81.4290000  38.7830000  12.7770000 -81.3840000  39.7590000  12.3160000
 -82.5980000  38.0830000  12.5990000 -83.4360000  38.6560000  12.2300000
 -82.8800000  36.9710000  13.3710000 -83.7070000  36.3310000  13.1000000
 -82.0260000  36.6030000  14.3980000 -82.2800000  35.6350000  14.8040000
 -81.0140000  38.1520000  17.5850000 -81.4690000  37.1580000  18.1700000
 -81.6440000  39.3430000  17.5990000 -81.4840000  40.1200000  16.9740000
 -82.8560000  39.5780000  18.3410000 -82.9810000  38.7100000  18.9880000
 -82.7910000  40.9170000  19.0990000 -82.9280000  41.7180000  18.3730000
 -83.9460000  41.0440000  20.0870000 -83.8950000  40.3170000  20.8980000
 -84.8980000  40.9430000  19.5660000 -83.9380000  42.0870000  20.4040000
 -81.4450000  41.0650000  19.8390000 -81.3300000  42.0730000  20.2380000
 -81.3150000  40.2750000  20.5790000 -80.6220000  40.9450000  19.1350000
 -84.0560000  39.6090000  17.4020000 -84.0710000  40.3430000  16.4030000
 -85.1100000  38.8670000  17.7630000 -85.2540000  38.6360000  18.7350000
 -86.3680000  38.8770000  17.0200000 -86.3870000  39.7220000  16.3310000
 -86.5920000  37.6260000  16.1590000 -87.5090000  37.7960000  15.5940000
 -85.4450000  37.4780000  15.1660000 -84.4770000  37.4460000  15.6660000
 -85.5920000  36.5900000  14.5510000 -85.4160000  38.3650000  14.5330000
 -86.7320000  36.3610000  16.9710000 -85.9020000  36.4540000  17.6730000
 -86.5170000  35.5010000  16.3370000 -87.7640000  36.3270000  17.3180000
 -87.5280000  39.0280000  17.9900000 -87.5690000  38.3550000  19.0220000
 -88.4820000  39.9070000  17.6560000 -88.4760000  40.4080000  16.7790000
 -89.7030000  40.0490000  18.4170000 -89.3770000  40.2160000  19.4440000
 -90.4440000  41.3550000  18.0620000 -89.9440000  42.2590000  18.4100000
 -90.6380000  41.4890000  16.9980000 -91.7260000  41.5290000  18.8420000
 -91.9390000  40.7890000  19.8190000 -92.4740000  42.4720000  18.5110000
 -90.6270000  38.8370000  18.1200000 -91.0890000  38.6940000  16.9800000
 -90.8730000  37.9800000  19.1080000 -90.3490000  38.1340000  19.9580000
 -91.7530000  36.8080000  18.9210000 -91.4320000  36.3290000  17.9960000
 -91.6100000  35.8050000  20.0770000 -91.7720000  36.2800000  21.0450000
 -92.3420000  34.9990000  20.0170000 -90.3540000  35.1700000  20.0140000
 -89.6620000  35.7910000  20.2520000 -93.2300000  37.1980000  18.7710000
 -94.0070000  36.4690000  18.1490000 -93.6210000  38.3290000  19.3650000
 -93.0870000  38.6040000  20.1770000 -95.0040000  38.8190000  19.3170000
 -95.7370000  38.0140000  19.3660000 -95.2100000  39.9140000  20.3620000
 -96.2370000  40.2750000  20.4230000 -95.0000000  39.4010000  21.3000000
 -94.7140000  41.1730000  19.9040000 -94.1960000  41.6310000  20.5700000
 -95.4570000  39.3350000  17.9860000 -96.6750000  39.3080000  17.7320000
 -94.5360000  39.7760000  17.1130000 -93.5370000  39.7360000  17.2550000
 -94.9100000  40.4100000  15.8630000 -95.8540000  40.9430000  15.9710000
 -93.9230000  41.5420000  15.5280000 -92.9180000  41.2630000  15.2120000
 -93.8810000  42.1930000  16.4020000 -94.5020000  42.5280000  14.5330000
 -94.9820000  42.1270000  13.4500000 -94.4710000  43.7420000  14.8580000
 -95.0300000  39.3770000  14.7400000 -94.1530000  39.2780000  13.8790000
 -96.1430000  38.6350000  14.7060000 -96.9670000  39.0540000  15.1130000
 -96.3200000  37.4950000  13.7790000 -95.6170000  36.6920000  14.0020000
 -97.7340000  36.9080000  13.9110000 -97.7380000  35.9670000  13.3620000
 -98.4440000  37.6610000  13.5690000 -98.1590000  36.4290000  15.2820000
 -97.2680000  35.7400000  16.1310000 -96.1950000  35.6940000  16.0190000
 -97.6880000  35.2550000  17.3540000 -97.0470000  34.4990000  17.7820000
 -98.9930000  35.4890000  17.8060000 -99.3980000  35.0780000  19.0240000
 -99.2900000  35.7870000  19.6620000 -99.8960000  36.1530000  16.9830000
-100.9180000  36.2040000  17.3290000 -99.4710000  36.6520000  15.7490000
-100.0130000  37.5370000  15.4490000 -96.0300000  37.8190000  12.3010000
 -95.5100000  36.9530000  11.5870000 -96.3630000  39.0320000  11.8210000
 -96.9770000  39.6310000  12.3550000 -96.1430000  39.4210000  10.4250000
 -96.4910000  38.6230000   9.7690000 -96.9910000  40.6880000  10.0900000
 -96.8620000  41.5860000  10.6950000 -98.0590000  40.4820000  10.1630000
 -96.8690000  41.1030000   8.6480000 -96.7790000  40.2640000   7.7510000
 -96.8700000  42.4130000   8.3920000 -96.3310000  42.7610000   7.6120000
 -97.5790000  43.0840000   8.6510000 -94.6620000  39.6590000  10.1050000
 -94.0890000  39.0520000   9.1890000 -94.0520000  40.5550000  10.8880000
 -94.6480000  41.1540000  11.4400000 -92.6340000  40.8750000  10.7390000
 -92.5560000  41.1100000   9.6780000 -92.2480000  42.1070000  11.5720000
 -92.2720000  41.9240000  12.6470000 -91.1980000  42.3200000  11.3710000
 -92.9200000  43.4170000  11.1140000 -93.9890000  43.4330000  10.9010000
 -92.4700000  43.7350000  10.1730000 -92.6730000  44.5350000  12.1400000
 -91.6670000  44.9130000  11.9560000 -92.6320000  44.3540000  13.2140000
 -93.6510000  45.6140000  11.9650000 -94.4260000  45.6660000  12.6110000
 -93.5340000  46.6210000  11.1050000 -92.4630000  46.7450000  10.3140000
 -92.4080000  46.4840000   9.3400000 -91.8160000  47.4950000  10.5090000
 -94.4920000  47.5430000  11.0810000 -95.1670000  47.6360000  10.3360000
 -94.5580000  48.2910000  11.7570000 -91.7190000  39.7020000  11.1400000
 -90.5030000  39.7730000  10.9540000 -92.2940000  38.6560000  11.7370000
 -93.0770000  38.9150000  12.3210000 -91.6070000  37.3990000  11.9980000
 -90.7840000  37.7370000  12.6280000 -92.5200000  36.4130000  12.7470000
 -93.2080000  35.9900000  12.0150000 -93.0130000  36.9510000  13.5570000
 -91.8310000  35.2820000  13.4820000 -91.1450000  34.7850000  12.7960000
 -91.0980000  35.8010000  14.7430000 -90.6010000  36.7710000  14.7320000
 -91.8120000  35.8400000  15.5660000 -90.3250000  35.0490000  14.8950000
 -92.8320000  34.1940000  13.9120000 -93.5380000  33.8250000  13.1680000
 -92.1990000  33.3170000  14.0500000 -93.4800000  34.5350000  14.7190000
 -91.1110000  36.7400000  10.7040000 -90.0150000  36.1830000  10.6820000
 -91.9160000  36.7890000   9.6240000 -92.9180000  36.8420000   9.7360000
 -91.5010000  36.3190000   8.3150000 -91.3390000  35.2460000   8.4190000
 -92.6740000  36.3920000   7.2980000 -92.9870000  37.4030000   7.0400000
 -93.5950000  35.9010000   7.6110000 -92.3850000  35.7700000   5.9380000
 -93.3250000  35.6610000   5.3970000 -91.8110000  36.3800000   5.2400000
 -91.9490000  34.3360000   6.0160000 -92.7860000  33.4410000   6.2290000
 -90.6820000  34.0000000   5.7600000 -90.6780000  33.2300000   5.1060000
 -89.7460000  34.3780000   5.7840000 -90.2720000  37.1030000   7.7940000
 -89.3340000  36.5270000   7.2320000 -90.3010000  38.4390000   7.9740000
 -91.1630000  38.9040000   8.2250000 -89.1730000  39.2980000   7.6370000
 -89.0190000  39.2360000   6.5590000 -89.4650000  40.7940000   7.9230000
 -88.5340000  41.2250000   7.5550000 -89.5530000  41.2290000   8.9190000
 -90.6480000  41.4180000   7.1530000 -91.0840000  42.2450000   7.7140000
 -91.3750000  40.7730000   6.6600000 -90.2080000  42.2410000   5.9890000
 -89.3140000  43.1010000   6.1470000 -90.8080000  42.0760000   4.9020000
 -87.9130000  38.8670000   8.4090000 -86.8320000  38.7020000   7.8370000
 -88.0590000  38.7090000   9.7340000 -88.4330000  39.5300000  10.1880000
 -87.0190000  38.2490000  10.5940000 -86.2760000  39.0440000  10.5340000
 -87.4700000  38.1860000  12.0660000 -88.4790000  38.2400000  12.4730000
 -86.9880000  37.2900000  12.4580000 -87.0510000  39.1170000  12.4490000
 -86.4350000  36.8940000  10.1760000 -85.2190000  36.7040000  10.2160000
 -87.3100000  35.9650000   9.7820000 -88.2770000  36.2510000   9.7280000
 -86.8720000  34.6550000   9.2640000 -86.2270000  34.1320000   9.9700000
 -88.0740000  33.7480000   8.9640000 -88.7600000  34.2960000   8.3180000
 -87.7760000  32.9240000   8.3160000 -88.8060000  33.1830000  10.2080000
 -88.9610000  33.8940000  11.0200000 -90.2080000  32.6550000   9.8210000
 -90.9410000  32.7810000  10.6170000 -90.1440000  31.5980000   9.5620000
 -90.6260000  33.0120000   8.8800000 -88.0210000  32.0560000  10.8640000
 -87.6350000  31.3600000  10.1180000 -88.7820000  31.5030000  11.4140000
 -87.3170000  32.3730000  11.6330000 -86.0200000  34.8290000   8.0050000
 -84.9870000  34.1540000   7.8760000 -86.4150000  35.7350000   7.0780000
 -87.2340000  36.3250000   7.1250000 -85.6300000  35.9950000   5.8880000
 -85.5380000  35.0760000   5.3090000 -86.3580000  36.9650000   4.9250000
 -86.3120000  38.0310000   5.1450000 -85.8470000  36.9340000   3.9630000
 -87.7130000  36.4550000   4.5000000 -87.9090000  35.2490000   4.3290000
 -88.6610000  37.3450000   4.2480000 -88.4690000  38.2890000   3.9450000
 -89.4490000  36.9940000   3.7230000 -84.2550000  36.5530000   6.2600000
 -83.2380000  36.0540000   5.7690000 -84.2120000  37.5670000   7.1570000
 -84.9960000  37.9890000   7.6340000 -82.9910000  38.1540000   7.6200000
 -82.5780000  38.6420000   6.7370000 -83.2580000  39.3060000   8.6350000
 -83.8670000  39.2320000   9.5360000 -83.7040000  40.1230000   8.0690000
 -81.9960000  40.0260000   9.0420000 -81.0070000  40.0560000   8.2770000
 -82.0320000  40.6630000  10.1170000 -82.0580000  37.1010000   8.2460000
 -80.8450000  37.1340000   8.0550000 -82.6170000  36.1910000   9.0480000
 -83.0730000  36.6850000   9.8010000 -81.8760000  35.0950000   9.6530000
 -81.0260000  35.4510000  10.2350000 -82.7450000  34.3120000  10.6500000
 -83.5500000  33.8080000  10.1140000 -83.1640000  34.9230000  11.4490000
 -81.9560000  33.3210000  11.4560000 -81.1280000  33.7350000  12.5180000
 -80.6040000  34.6780000  12.5600000 -80.4770000  32.7980000  13.2910000
 -80.6470000  32.8930000  14.3530000 -80.4850000  31.4700000  12.9550000
 -79.6820000  30.8680000  13.3550000 -81.2690000  31.0330000  11.8980000
 -81.0090000  30.0650000  11.4940000 -82.0440000  31.9560000  11.1720000
 -82.7370000  31.6440000  10.4050000 -81.2760000  34.1750000   8.6090000
 -80.0710000  33.9090000   8.6780000 -82.0700000  33.6820000   7.6260000
 -83.0800000  33.7160000   7.6280000 -81.5600000  32.8900000   6.5010000
 -81.1830000  31.9020000   6.7620000 -82.7050000  32.6630000   5.4790000
 -83.4260000  31.9270000   5.8360000 -83.2200000  33.5900000   5.2260000
 -82.3010000  32.1410000   4.0980000 -81.9270000  31.1190000   4.1590000
 -81.5120000  32.7270000   3.6260000 -83.5840000  32.1010000   3.2060000
 -84.1870000  33.0060000   3.1450000 -84.2710000  31.3080000   3.5010000
 -83.2230000  31.8290000   1.7630000 -82.7660000  30.8410000   1.7130000
 -84.1090000  31.7300000   1.1360000 -82.4530000  32.9350000   1.1010000
 -81.6780000  33.4800000   1.4510000 -82.0970000  32.4680000   0.2790000
 -83.0940000  33.6540000   0.7960000 -80.3740000  33.5750000   5.8410000
 -79.3490000  32.9220000   5.5960000 -80.4920000  34.8850000   5.5720000
 -81.2140000  35.4580000   5.9840000 -79.4330000  35.6880000   4.9740000
 -79.2400000  35.3370000   3.9600000 -79.8730000  37.1350000   4.7840000
 -79.5490000  37.4800000   3.8020000 -79.2690000  37.8430000   5.3530000
 -81.2280000  37.2370000   4.3710000 -81.4700000  38.1480000   4.1910000
 -78.1620000  35.6560000   5.8280000 -77.0760000  35.4040000   5.3160000
 -78.2950000  35.9470000   7.1220000 -78.9270000  36.7270000   7.2340000
 -77.1680000  35.9060000   8.0520000 -76.4590000  36.6310000   7.6530000
 -77.5720000  36.3130000   9.4870000 -78.3260000  35.6280000   9.8750000
 -76.3900000  36.1580000  10.4810000 -75.4110000  36.0870000  10.0080000
 -76.5490000  35.1990000  10.9760000 -76.3410000  36.9250000  11.2540000
 -78.0490000  37.7860000   9.5240000 -77.1570000  38.3990000   9.6550000
 -78.4510000  38.3050000   8.6540000 -79.0680000  38.0200000  10.6200000
 -78.7320000  37.6030000  11.5700000 -79.2560000  39.0880000  10.5090000
 -80.0550000  37.5810000  10.4790000 -76.5380000  34.5110000   8.1000000
 -75.3060000  34.3920000   8.1260000 -77.3680000  33.4480000   8.0870000
 -78.3260000  33.5010000   7.7700000 -76.9010000  32.0860000   8.1980000
 -76.1630000  32.0410000   8.9990000 -78.0960000  31.1070000   8.4210000
 -78.7620000  31.4780000   9.2000000 -78.6320000  30.8810000   7.4990000
 -77.6950000  29.7600000   8.8980000 -77.6920000  28.5820000   8.2040000
 -77.9880000  28.4570000   7.1730000 -77.2280000  27.5590000   9.0350000
 -76.7990000  26.6650000   8.8420000 -76.9510000  28.0480000  10.2620000
 -76.4630000  27.4030000  11.3890000 -76.1560000  26.3670000  11.3880000
 -76.2420000  28.1700000  12.5180000 -75.7000000  27.6920000  13.3200000
 -76.5070000  29.5460000  12.5410000 -76.2630000  30.0650000  13.4570000
 -76.9940000  30.2050000  11.3950000 -77.1770000  31.2690000  11.3860000
 -77.2240000  29.4460000  10.2270000 -76.1150000  31.6570000   6.9670000
 -75.1450000  30.8970000   7.1140000 -76.4620000  32.1330000   5.7390000
 -77.0870000  32.8880000   5.4980000 -75.7710000  31.7520000   4.5180000
 -75.1030000  30.8920000   4.5680000 -76.8140000  31.3720000   3.4500000
 -77.4060000  32.2100000   3.0810000 -76.3050000  31.0330000   2.5480000
 -77.5700000  30.0990000   3.7850000 -77.1060000  29.2740000   4.5790000
 -78.7070000  29.8760000   3.1230000 -79.0510000  28.9390000   2.9720000
 -79.1560000  30.4890000   2.4570000 -74.7930000  32.7990000   4.0060000
 -74.2670000  32.6340000   2.9020000 -74.4710000  33.8220000   4.7980000
 -74.2920000  33.5420000   5.7510000 -73.6500000  34.9180000   4.3380000
 -74.1220000  35.1350000   3.3800000 -73.7370000  36.1020000   5.3210000
 -73.4230000  35.8530000   6.3350000 -74.7550000  36.4780000   5.4190000
 -73.1490000  37.3320000   4.7760000 -72.0510000  37.5110000   5.2560000
 -73.8040000  37.9590000   3.7610000 -73.9190000  37.4890000   2.8750000
 -74.5010000  38.6890000   3.7410000 -72.1890000  34.4720000   4.1890000
 -71.6570000  33.8200000   5.0910000 -71.5460000  34.8370000   3.0730000
 -72.0320000  35.4050000   2.3940000 -70.1480000  34.4650000   2.8040000
 -70.0640000  33.3790000   2.7760000 -69.7020000  35.0150000   1.4420000
 -68.6530000  34.7210000   1.3880000 -69.7460000  36.0990000   1.3330000
 -70.4450000  34.4240000   0.2400000 -71.5190000  34.5710000   0.1250000
 -70.3120000  33.3460000   0.3300000 -69.8750000  35.0450000  -1.0470000
 -68.8510000  35.4140000  -0.9970000 -70.4810000  35.8860000  -1.3850000
 -69.8580000  33.9690000  -2.0450000 -69.9310000  32.9980000  -1.7740000
 -69.5560000  34.0720000  -3.3200000 -69.1990000  35.2260000  -3.8930000
 -69.6500000  35.5150000  -4.7490000 -68.3570000  35.7560000  -3.7190000
 -69.6090000  32.9390000  -4.0170000 -68.7560000  32.4350000  -4.2130000
 -70.4150000  32.5660000  -4.4990000 -69.1780000  34.9590000   3.8860000
 -68.2490000  34.2400000   4.2650000 -69.3700000  36.1970000   4.3570000
 -69.6780000  36.8920000   3.6930000 -68.5520000  36.7660000   5.4000000
 -67.5270000  36.4830000   5.1580000 -68.6850000  38.3370000   5.4420000
 -67.6280000  38.5970000   5.4850000 -69.1600000  38.7380000   6.3370000
 -69.1070000  39.4250000   4.4840000 -68.3250000  40.2390000   3.6980000
 -67.2700000  40.2200000   3.4670000 -69.1300000  41.1700000   3.0710000
 -68.7270000  41.9520000   2.5740000 -70.4660000  41.0200000   3.3670000
 -71.6550000  41.6700000   2.9680000 -71.5630000  42.3220000   2.1110000
 -72.9270000  41.3150000   3.4470000 -73.8350000  41.7190000   3.0240000
 -72.9800000  40.3540000   4.3860000 -73.7740000  40.4960000   5.1040000
 -71.7340000  39.8930000   4.7630000 -71.6560000  39.9920000   5.8360000
 -70.4620000  39.9500000   4.2440000 -68.8130000  36.1790000   6.8000000
 -67.9110000  36.1770000   7.6460000 -70.0260000  35.6630000   7.0550000
 -70.7530000  35.7120000   6.3560000 -70.3760000  35.1340000   8.3870000
 -69.5010000  35.2600000   9.0250000 -71.6480000  35.8620000   8.8940000
 -72.3790000  35.2240000   8.3960000 -72.0430000  35.7950000   9.9070000
 -71.6240000  37.4000000   8.7920000 -71.4360000  37.7640000   7.7810000
 -72.9940000  38.0090000   9.1690000 -72.9900000  38.9320000   8.5880000
 -73.8650000  37.4890000   8.7720000 -73.1940000  38.4530000  10.1440000
 -70.4870000  38.0170000   9.6510000 -69.9370000  37.4300000  10.3860000
 -69.7210000  38.3810000   8.9670000 -70.8200000  38.9330000  10.1400000
 -70.6090000  33.6190000   8.3930000 -71.2490000  33.0970000   9.3150000
 -70.0560000  32.8930000   7.4060000 -69.1820000  33.2120000   7.0150000
 -70.4030000  31.4850000   7.1680000 -71.4880000  31.4720000   7.0570000
 -69.6710000  30.9680000   5.8890000 -68.5890000  30.9500000   6.0180000
 -69.7970000  31.6260000   5.0290000 -69.9520000  29.5180000   5.4630000
 -69.4250000  29.3370000   4.5270000 -69.4840000  28.7920000   6.1270000
 -71.4540000  29.1800000   5.3500000 -72.4470000  29.3370000   4.9270000
 -71.3960000  29.9970000   4.6300000 -71.6500000  27.7340000   5.1460000
 -70.9170000  27.1940000   4.7090000 -72.7700000  27.0750000   5.5000000
 -73.8430000  27.6950000   5.9950000 -73.8390000  28.3540000   6.7610000
 -74.6010000  27.8240000   5.3400000 -72.8300000  25.7640000   5.2560000
 -73.5410000  25.0880000   5.4960000 -72.3560000  25.3980000   4.4420000
 -70.0900000  30.5680000   8.3530000 -70.8080000  29.5970000   8.5880000
 -69.0200000  30.8560000   9.0970000 -68.3620000  31.5780000   8.8400000
 -68.6360000  30.0150000  10.2170000 -69.1980000  29.0810000  10.2000000
 -67.1770000  29.7510000  10.0600000 -66.9620000  29.7120000  11.1280000
 -66.8770000  28.8580000   8.7890000 -65.9000000  28.4060000   8.6170000
 -66.8180000  29.6150000   8.0070000 -67.6400000  28.1680000   8.4280000
 -66.3380000  30.8560000  10.0660000 -65.4720000  30.6700000   9.6960000
 -68.8860000  30.6650000  11.5850000 -68.3720000  30.2030000  12.6120000
 -69.7240000  31.7020000  11.6490000 -70.5460000  31.6630000  11.0640000
 -69.9260000  32.4550000  12.8820000 -69.0880000  32.2330000  13.5420000
 -69.9610000  33.9690000  12.6320000 -70.8900000  34.1570000  12.0940000
 -69.9090000  34.7250000  13.9760000 -70.4180000  35.6660000  13.7700000
 -70.4490000  34.1920000  14.7590000 -68.8910000  34.8410000  14.3490000
 -68.7940000  34.4440000  11.7310000 -68.7720000  35.5290000  11.6360000
 -68.7950000  33.9400000  10.7640000 -67.3800000  34.1030000  12.2100000
 -66.9250000  34.7590000  12.9520000 -67.1150000  33.0960000  12.5300000
 -66.7550000  34.2920000  11.3370000 -71.2420000  32.0130000  13.5320000
 -72.2910000  32.0060000  12.8800000 -71.1850000  31.6560000  14.8200000
 -70.3000000  31.6830000  15.3060000 -72.3500000  31.1390000  15.5450000
 -72.9180000  30.5330000  14.8400000 -71.9030000  30.2440000  16.7080000
 -72.7390000  30.0840000  17.3890000 -71.0480000  30.7510000  17.1570000
 -71.4430000  28.9810000  16.2440000 -70.4990000  28.8880000  16.3960000
 -73.2590000  32.2660000  16.0520000 -72.7890000  33.3320000  16.4860000
 -74.5810000  32.0170000  16.0200000 -74.9800000  31.1120000  15.8130000
 -75.5940000  33.0180000  16.2750000 -75.1150000  33.9950000  16.2090000
 -76.6630000  33.0270000  15.1660000 -77.2410000  32.1060000  15.0820000
 -77.7500000  34.0710000  15.4450000 -78.1800000  34.0430000  16.4470000
 -78.5500000  33.8600000  14.7360000 -77.3640000  35.0700000  15.2400000
 -76.0030000  33.2670000  13.7750000 -76.8040000  33.4490000  13.0590000
 -75.2830000  34.0750000  13.6420000 -75.4540000  32.4070000  13.3910000
 -76.2820000  32.7530000  17.6190000 -76.9640000  31.7380000  17.7720000
 -76.1130000  33.6410000  18.5940000 -75.2540000  34.1710000  18.5670000
 -76.8990000  33.6250000  19.8420000 -77.0230000  32.5810000  20.1280000
 -76.2060000  34.4410000  20.9870000 -76.1790000  35.4940000  20.7080000
 -77.0460000  34.4080000  22.2670000 -76.6400000  34.8350000  23.1830000
 -77.9690000  34.9770000  22.1500000 -77.2640000  33.3640000  22.4930000
 -74.7600000  33.9090000  21.2250000 -74.5980000  33.2300000  20.3870000
 -74.3360000  33.1390000  21.8700000 -73.8670000  34.9450000  21.8880000
 -73.9150000  35.8430000  21.2730000 -74.1670000  35.0220000  22.9330000
 -72.8110000  34.6800000  21.9320000 -78.2690000  34.2470000  19.5600000
 -78.3640000  35.4560000  19.3520000 -79.3490000  33.4780000  19.6280000
 -79.4440000  33.1960000  20.5940000 -80.6720000  33.8840000  19.1870000
 -80.5400000  34.7210000  18.5020000 -81.3170000  32.7840000  18.3520000
 -80.7500000  32.7770000  17.4210000 -81.0470000  31.8040000  18.7460000
 -82.8020000  32.9040000  18.0300000 -83.2140000  32.7190000  19.0220000
 -83.1090000  34.2750000  17.3150000 -82.3580000  34.5240000  16.5660000
 -83.1200000  35.1870000  17.9120000 -84.0170000  34.2370000  16.7120000
 -83.2720000  31.7440000  17.1310000 -83.0930000  30.7630000  17.5720000
 -84.3580000  31.7930000  17.0500000 -82.7820000  31.7300000  16.1580000
 -81.5570000  34.2390000  20.3950000 -81.8240000  33.3860000  21.2370000
 -81.9720000  35.4970000  20.4780000 -81.1480000  36.0730000  20.3750000
 -82.9460000  36.0010000  21.4460000 -82.9040000  35.2700000  22.2530000
 -82.5670000  37.4210000  21.9310000 -82.1520000  37.9940000  21.1030000
 -83.4450000  37.9170000  22.3460000 -81.4590000  37.4510000  22.9360000
 -81.5100000  36.6900000  24.1140000 -82.0820000  35.7860000  24.2630000
 -80.5110000  36.7600000  25.0580000 -80.5310000  36.1360000  25.9390000
 -79.4180000  37.5610000  24.8460000 -78.9040000  37.8450000  25.7530000
 -79.3040000  38.3000000  23.6780000 -78.6600000  39.1660000  23.7220000
 -80.3350000  38.2800000  22.7500000 -80.4330000  39.2810000  22.3560000
 -84.3520000  36.1070000  20.8470000 -84.6020000  36.9330000  19.9670000
 -85.2890000  35.3360000  21.3800000 -85.1250000  35.1590000  22.3600000
 -86.7230000  35.4300000  21.0330000 -87.0270000  35.8960000  20.0960000
 -87.3430000  34.0270000  20.9740000 -87.3450000  33.6640000  22.0020000
 -88.3710000  34.0070000  20.6110000 -86.5880000  32.9980000  20.1370000
 -85.6720000  32.6660000  20.6250000 -87.4150000  31.7450000  20.0200000
 -86.8840000  31.2320000  19.2180000 -87.2080000  31.1820000  20.9310000
 -88.4820000  31.9200000  19.8850000 -86.2220000  33.5090000  18.7510000
 -85.1440000  33.3750000  18.6680000 -86.7400000  33.0090000  17.9330000
 -86.6080000  34.5220000  18.6410000 -87.3610000  36.3300000  22.0800000
 -87.5790000  35.9190000  23.2170000 -87.6080000  37.5750000  21.6820000
 -86.9710000  37.8600000  20.9520000 -87.9050000  38.6660000  22.5890000
 -87.5520000  38.3670000  23.5760000 -87.1560000  39.9360000  22.0610000
 -87.6860000  40.5190000  21.3070000 -86.1480000  39.6610000  21.7510000
 -86.6770000  40.8580000  23.1360000 -86.5400000  40.4800000  24.2970000
 -86.4110000  42.1150000  22.8040000 -85.8750000  42.5240000  22.0510000
 -86.6840000  42.7560000  23.5340000 -89.3920000  38.9250000  22.7490000
 -90.2140000  38.3570000  22.0100000 -89.7310000  39.7900000  23.7370000
 -89.0740000  40.2480000  24.3520000 -91.0960000  40.1560000  24.0630000
 -91.1580000  40.6840000  25.0140000 -91.6630000  41.0870000  23.0010000
 -92.1120000  40.5000000  22.2000000 -92.3970000  41.6860000  23.5400000
 -90.6760000  42.1670000  22.5270000 -90.1760000  42.6220000  23.3820000
 -89.9580000  41.7830000  21.8030000 -91.3880000  43.3660000  21.9030000
 -91.8250000  43.9110000  22.7410000 -92.1740000  43.2040000  21.1650000
 -90.3710000  44.2740000  21.2080000 -89.9210000  43.8620000  20.3050000
 -89.6650000  44.5650000  21.9850000 -90.9900000  45.5820000  20.8820000
 -91.7060000  45.5160000  20.1730000 -90.3340000  46.3130000  20.6470000
 -91.4640000  45.9870000  21.6760000 -91.9450000  38.9200000  24.2830000
 -93.0130000  38.7560000  23.6840000 -91.4350000  38.0180000  25.1270000
 -90.5740000  38.2280000  25.6090000 -92.1510000  36.8010000  25.4600000
 -92.4340000  36.3360000  24.5150000 -91.2810000  35.8180000  26.2760000
 -90.6570000  36.1740000  27.0950000 -91.9720000  35.1840000  26.8310000
 -90.4040000  34.9490000  25.4020000 -89.6970000  35.5700000  24.8520000
 -89.9570000  34.3120000  26.1660000 -91.1940000  33.9870000  24.4960000
 -92.2930000  33.5770000  24.8470000 -90.6310000  33.7080000  23.3130000
 -90.5740000  32.9230000  22.6790000 -90.6140000  34.5460000  22.7490000
 -93.4280000  37.1250000  26.2340000 -94.4830000  36.5890000  25.9250000
 -93.3520000  37.9720000  27.2650000 -92.6460000  37.7730000  27.9590000
 -94.5000000  38.5500000  27.9640000 -94.8860000  37.8050000  28.6600000
 -94.0710000  39.7040000  28.9050000 -93.6110000  39.3720000  29.8360000
 -94.9540000  40.2360000  29.2600000 -93.1840000  40.7560000  28.2240000
 -92.6200000  40.5130000  27.1340000 -93.0780000  41.8720000  28.7820000
 -95.6200000  39.0080000  27.0040000 -96.7740000  38.5620000  27.1200000
 -95.2750000  39.8830000  26.0360000 -94.4680000  40.4830000  26.1400000
 -96.2160000  40.4010000  25.0840000 -96.9020000  40.8980000  25.7700000
 -95.5450000  41.4750000  24.2020000 -94.7370000  41.0300000  23.6220000
 -95.2090000  42.2510000  24.8900000 -96.3980000  42.2180000  23.1450000
 -96.7300000  41.7280000  22.2300000 -97.7230000  42.7390000  23.7210000
 -98.1310000  43.5070000  23.0650000 -97.3840000  43.4200000  24.5010000
 -98.4480000  42.2030000  24.3330000 -95.5790000  43.4260000  22.5920000
 -94.6090000  43.3770000  22.0980000 -95.4820000  44.1870000  23.3670000
 -96.1690000  43.9080000  21.8130000 -96.7930000  39.2670000  24.2310000
 -97.9640000  39.2210000  23.9640000 -95.9700000  38.2910000  23.8440000
 -94.9810000  38.4040000  24.0180000 -96.4370000  37.0970000  23.1520000
 -96.8660000  37.5100000  22.2390000 -95.2730000  36.1250000  22.8430000
 -94.4620000  36.6280000  22.3170000 -94.9470000  35.7000000  23.7930000
 -95.6110000  34.8830000  22.0540000 -96.3600000  34.3370000  22.6270000
 -96.0440000  35.2020000  20.6020000 -95.2310000  35.2190000  19.8760000
 -96.6660000  34.3400000  20.3630000 -96.6430000  36.0870000  20.3890000
 -94.4430000  33.8830000  22.0590000 -94.3360000  33.5790000  23.1000000
 -94.8600000  33.0590000  21.4800000 -93.4360000  34.0570000  21.6800000
 -97.4880000  36.3560000  23.9930000 -98.5400000  35.9910000  23.4600000
 -97.2350000  36.1370000  25.3070000 -96.4990000  36.5670000  25.8500000
 -98.1830000  35.4930000  26.1750000 -98.3810000  34.4960000  25.7830000
 -97.6480000  35.4470000  27.6410000 -96.5740000  35.3450000  27.7930000
 -98.0510000  34.5410000  28.0940000 -97.9890000  36.2320000  28.3150000
 -99.5240000  36.2100000  26.1320000-100.5540000  35.5600000  25.9250000
 -99.5270000  37.5490000  26.2920000 -98.8230000  38.0370000  26.8270000
-100.7330000  38.3390000  26.1800000-101.4200000  38.0850000  26.9870000
-100.4340000  39.8430000  26.3850000-101.3880000  40.3370000  26.1980000
 -99.6960000  40.3530000  25.7660000-100.0810000  40.2330000  27.8350000
-101.0180000  40.2640000  28.3910000 -99.4040000  39.6820000  28.4880000
 -99.6110000  41.6590000  27.9320000 -99.9770000  42.4980000  27.0790000
 -98.8960000  41.9620000  28.9150000-101.4600000  38.0960000  24.8610000
-102.6220000  37.6920000  24.8540000-100.7510000  38.2430000  23.7460000
 -99.7560000  38.1130000  23.8620000-101.2730000  38.0290000  22.3710000
-102.1080000  38.6600000  22.0670000-100.1000000  38.1540000  21.3510000
-100.5040000  37.8310000  20.3910000 -99.1750000  37.5800000  21.4050000
 -99.9010000  39.6600000  21.2110000-100.6180000  40.0090000  20.4690000
 -98.9450000  39.8540000  20.7250000-100.1810000  40.5540000  22.4560000
 -99.3110000  40.4600000  23.1050000-101.1590000  40.5540000  22.9370000
-100.0780000  42.0120000  22.2010000 -99.2050000  42.2980000  21.6150000
-100.3980000  42.5690000  23.0820000-101.0890000  42.5270000  21.3050000
-101.1610000  43.5210000  21.4680000-100.9030000  42.4370000  20.3170000
-102.0360000  42.2150000  21.4640000-101.9470000  36.6940000  22.2180000
-103.0570000  36.6090000  21.6750000-101.2920000  35.6470000  22.7180000
-100.5930000  35.7770000  23.4350000-101.7580000  34.2780000  22.5270000
-102.1670000  34.1660000  21.5230000-100.6050000  33.2700000  22.8060000
-100.1810000  33.5060000  23.7830000-101.1100000  31.8390000  22.7700000
-100.2810000  31.1410000  22.6480000-101.6660000  31.8070000  21.8330000
-101.7100000  31.6700000  23.6650000 -99.4900000  33.4200000  21.7810000
 -98.5490000  33.4460000  22.3300000 -99.8300000  34.2380000  21.1460000
 -99.4140000  32.6230000  21.0410000-102.9650000  34.0000000  23.4060000
-103.9460000  33.4160000  22.9210000-102.9350000  34.4220000  24.6850000
-102.3530000  35.1860000  24.9980000-104.0500000  34.2240000  25.5900000
-104.4700000  33.2210000  25.5200000-103.6210000  34.5960000  27.0330000
-103.3730000  35.6400000  27.2240000-104.5520000  34.5220000  27.5960000
-102.5480000  33.6620000  27.6490000-101.7560000  33.4030000  26.9470000
-101.8670000  34.3470000  28.8570000-101.2000000  33.7050000  29.4330000
-101.3450000  35.2900000  28.6910000-102.6500000  34.6090000  29.5680000
-103.2040000  32.3400000  28.0890000-102.7350000  31.9390000  28.9870000
-104.2170000  32.4950000  28.4600000-103.3490000  31.6410000  27.2650000
-105.2780000  35.0220000  25.1750000-106.4000000  34.5660000  25.4090000
-105.0930000  36.2040000  24.5780000-104.4550000  36.8080000  25.0760000
-106.1680000  37.0130000  24.0510000-106.8640000  37.2370000  24.8590000
-105.6340000  38.3600000  23.4940000-104.6540000  38.5670000  23.0640000
-105.7340000  39.0300000  24.3480000-106.3560000  38.7460000  22.7740000
-107.0040000  36.3020000  22.9990000-108.2410000  36.3100000  23.0990000
-106.3700000  35.6770000  21.9750000-105.4000000  35.7380000  21.6990000
-107.0700000  34.8710000  21.0050000-107.9640000  34.4670000  21.4790000
-106.4770000  34.0300000  20.6460000-107.4300000  35.5790000  19.7140000
-107.7550000  34.8860000  18.7430000-107.3520000  36.9220000  19.6490000
-107.2180000  37.4690000  20.4880000-107.6840000  37.6570000  18.4110000
-108.7340000  37.4500000  18.2060000-107.4250000  39.1560000  18.6530000
-108.1450000  39.3000000  19.4590000-106.3870000  39.3350000  18.9330000
-107.8630000  40.2700000  17.6840000-108.9220000  40.1810000  17.4410000
-107.3040000  40.2530000  16.7490000-107.6700000  41.5510000  18.5810000
-108.2020000  41.5070000  19.5320000-106.6130000  41.7000000  18.8000000
-108.1630000  42.8990000  18.0920000-109.2280000  42.8510000  17.8650000
-108.0420000  43.6420000  18.8800000-107.4130000  43.3630000  16.8970000
-106.6830000  43.9990000  17.1850000-108.0380000  43.9200000  16.3340000
-106.9850000  42.7030000  16.2630000-106.9340000  37.1870000  17.1720000
-107.5610000  36.8540000  16.1600000-105.6030000  37.1280000  17.2470000
-105.1370000  37.1910000  18.1410000-104.7580000  36.7620000  16.1130000
-105.2840000  37.0430000  15.2010000-103.5550000  37.6920000  16.0010000
-102.9160000  37.3720000  15.1770000-103.8780000  38.7010000  15.7440000
-102.9060000  37.8580000  17.2500000-102.4310000  38.6920000  17.2460000
-104.2910000  35.2930000  16.2470000-103.5680000  34.9360000  17.1900000
-104.7010000  34.4670000  15.2940000-105.2230000  34.9260000  14.5610000
-104.3210000  33.0520000  15.2230000-104.1750000  32.7620000  16.2630000
-105.4300000  32.2440000  14.7340000-104.9600000  31.2630000  14.7990000
-106.1530000  32.5290000  15.4980000-106.1350000  32.6710000  13.3890000
-106.4890000  33.6970000  13.2900000-105.5640000  32.3570000  12.5150000
-107.4110000  31.9500000  13.1200000-107.3710000  31.0780000  12.4680000
-108.0420000  32.6300000  12.5490000-108.0500000  31.4440000  14.4140000
-108.4110000  31.9690000  15.2980000-109.0460000  31.3110000  13.9940000
-107.2250000  30.3590000  15.0710000-106.6380000  29.7610000  14.5070000
-108.0130000  29.7430000  15.2110000-106.8940000  30.3730000  16.0250000
-103.0330000  32.7650000  14.4570000-102.7360000  32.8140000  13.3340000
-102.0260000  32.1440000  14.9210000-102.2290000  31.6470000  15.7770000
-100.6820000  32.0090000  14.2160000-100.4900000  33.0410000  13.9230000
 -99.6660000  31.4160000  15.1310000-100.1000000  30.4950000  15.5190000
 -98.3770000  31.1280000  14.3430000 -97.4550000  31.5640000  14.7280000
 -98.2550000  30.0460000  14.3850000 -98.4500000  31.5590000  13.3440000
 -99.3690000  32.3910000  16.2710000 -98.7130000  33.1450000  15.8360000
-100.2510000  32.8750000  16.6880000 -98.7910000  31.6870000  17.4940000
 -98.4880000  32.4330000  18.2280000 -99.6110000  31.1110000  17.9240000
 -97.9490000  31.0520000  17.2180000-100.8600000  31.2010000  12.8880000
-100.2980000  31.6030000  11.8790000-101.7460000  30.1840000  12.8870000
-102.1860000  29.9320000  13.7610000-102.0620000  29.4020000  11.6920000
-101.1670000  28.8370000  11.4340000-103.2110000  28.4180000  11.9870000
-102.9360000  27.7950000  12.8380000-103.1820000  27.8530000  11.0550000
-104.7200000  28.5750000  12.2820000-104.9230000  28.5890000  13.3530000
-105.3080000  29.1860000  11.5980000-105.2530000  27.2060000  11.9040000
-105.2380000  26.8860000  10.6930000-105.6940000  26.4420000  12.7940000
-102.4250000  30.2360000  10.4530000-102.2540000  29.7880000   9.3150000
-103.0010000  31.4150000  10.6690000-103.6570000  31.3970000  11.4370000
-103.2340000  32.3700000   9.6140000-103.8620000  31.9190000   8.8460000
-103.9740000  33.6420000  10.0380000-103.5330000  34.5000000   9.5310000
-104.9540000  33.5050000   9.5810000-104.4150000  34.4980000  11.1450000
-104.7310000  34.4520000  12.2670000-105.0470000  35.5140000  10.9630000
-101.9320000  32.7590000   8.8920000-101.8340000  32.6640000   7.6610000
-100.9450000  33.2150000   9.6650000-101.2050000  33.6160000  10.5550000
 -99.6140000  33.5230000   9.1690000 -99.7230000  33.9900000   8.1910000
 -98.9010000  34.5390000  10.1090000 -97.9270000  34.2460000   9.7160000
 -98.3290000  34.7600000  11.0110000 -99.5830000  35.8410000  10.2540000
 -99.4510000  36.7980000   9.2400000 -98.8640000  36.6790000   8.3410000
-100.0880000  38.0260000   9.3460000-100.1970000  38.6460000   8.4680000
-100.8180000  38.3540000  10.4820000-101.4070000  39.5700000  10.5880000
-100.7630000  40.2530000  10.7880000-100.9600000  37.4310000  11.5040000
-101.5600000  37.7820000  12.3300000-100.3660000  36.1710000  11.4130000
-100.6750000  35.5570000  12.2450000 -98.7360000  32.3040000   8.8810000
 -97.8620000  32.3650000   8.0120000 -98.9070000  31.2380000   9.6440000
 -98.8490000  31.5590000  10.6000000 -98.1430000  30.0160000   9.5260000
 -97.5880000  30.0240000   8.5880000 -97.0250000  29.9940000  10.5960000
 -96.5480000  29.0380000  10.3820000 -97.2360000  30.0400000  11.6650000
 -95.9760000  31.0400000  10.4040000 -94.8550000  30.7810000   9.5870000
 -94.7250000  29.9400000   8.9230000 -93.8780000  31.7380000   9.4130000
 -93.2620000  31.5770000   8.5400000 -93.9790000  32.9840000  10.0380000
 -93.3420000  33.8040000   9.7390000 -95.0900000  33.2660000  10.8200000
 -95.3310000  34.2890000  11.0660000 -96.0420000  32.2980000  11.0510000
 -96.4460000  32.5010000  12.0320000 -99.0290000  28.7550000   9.6040000
 -99.1290000  28.1350000  10.6710000 -99.6350000  28.3350000   8.4730000
 -99.2320000  28.6930000   7.0760000 -99.6560000  29.6580000   6.7980000
 -98.2170000  28.7300000   6.6810000 -99.8380000  27.6020000   6.2170000
 -99.2620000  26.7390000   5.8820000-100.0700000  28.0680000   5.2590000
-101.0450000  27.1340000   6.9770000-101.8610000  27.7900000   6.6760000
-101.3890000  26.1370000   6.7000000-100.6510000  27.2340000   8.4440000
-101.6430000  27.3410000   8.8820000-100.1100000  25.9070000   8.9760000
-100.8590000  25.1630000   9.6190000 -98.8270000  25.5930000   8.7290000
 -98.2880000  26.1280000   8.0640000 -98.2200000  24.3590000   9.2350000
 -98.8520000  23.5460000   8.8780000 -96.8390000  24.0960000   8.6000000
 -96.4660000  23.1220000   8.9200000 -96.9400000  23.9520000   7.5240000
 -95.7080000  25.1000000   8.9110000 -95.4570000  25.2590000   9.9590000
 -94.8080000  24.6390000   8.5040000 -95.7460000  26.3540000   8.0420000
 -96.0380000  26.2400000   6.8240000 -95.4540000  27.4500000   8.5620000
 -98.1440000  24.2790000  10.7770000 -97.7460000  23.2430000  11.3110000
 -98.4660000  25.3560000  11.4940000 -97.8800000  26.1170000  11.1820000
 -98.6470000  25.3250000  12.9370000 -97.6800000  24.9250000  13.2440000
 -98.8890000  26.7470000  13.4930000 -98.0700000  27.4300000  13.2680000
 -99.8470000  27.0930000  13.1040000 -99.0450000  26.8280000  14.9840000
 -98.1120000  26.2260000  15.8500000 -97.1170000  26.0410000  15.4740000
 -98.2980000  26.2970000  17.2540000 -97.6560000  25.8910000  18.0230000
 -99.3530000  27.0640000  17.7550000 -99.5550000  27.3830000  18.7670000
-100.2410000  27.6630000  16.9140000-101.1730000  28.0310000  17.3170000
-100.1120000  27.5440000  15.5570000-101.0870000  27.6680000  15.1100000
 -99.7850000  24.3920000  13.4060000 -99.6810000  23.7500000  14.4550000
-100.8870000  24.3060000  12.6320000-101.2130000  25.1480000  12.1800000
-102.0050000  23.4070000  12.8920000-102.5180000  23.6780000  13.8150000
-103.0590000  23.5100000  11.7660000-103.7080000  22.6420000  11.8840000
-102.7570000  23.4900000  10.7190000-103.7350000  24.3530000  11.9100000
-101.6060000  21.9490000  13.0950000-102.2590000  21.2410000  13.8710000
-100.5630000  21.4800000  12.3990000-100.2050000  21.9990000  11.6100000
-100.0240000  20.1310000  12.5910000-100.7310000  19.4480000  13.0630000
 -99.6750000  19.5330000  11.2280000 -98.7050000  19.9350000  10.9350000
 -99.5090000  18.4770000  11.4420000-100.6580000  19.5130000  10.0560000
-100.9750000  20.5230000   9.7950000-101.4850000  18.8630000  10.3420000
 -99.8910000  18.8840000   8.8460000 -99.9000000  17.7990000   8.9500000
 -98.8500000  19.1890000   8.7390000-100.4660000  19.1440000   7.5170000
 -99.8310000  19.0300000   6.7390000-101.6840000  19.5850000   7.2000000
-102.5960000  19.8810000   8.1160000-103.1530000  20.7140000   7.9860000
-103.1850000  19.1370000   8.4620000-101.9950000  19.7550000   5.9200000
-102.4150000  19.0460000   5.3360000-101.8400000  20.6260000   5.4340000
 -98.7890000  20.0980000  13.5070000 -98.0930000  19.0830000  13.5570000
 -98.5560000  21.1490000  14.2800000 -99.4170000  21.3080000  14.7840000
 -97.4040000  21.2610000  15.1620000 -96.6840000  20.5300000  14.7940000
 -96.7120000  22.6380000  15.0790000 -96.2140000  22.6190000  14.1100000
 -97.3540000  23.5100000  15.2040000 -95.5840000  22.8630000  16.0500000
 -94.2650000  22.5380000  15.7020000 -93.9740000  22.0610000  14.7780000
 -93.2280000  22.7360000  16.5920000 -92.3100000  22.2470000  16.3030000
 -93.4770000  23.3130000  17.8570000 -92.4910000  23.5260000  18.7370000
 -92.8770000  23.8090000  19.5700000 -94.8110000  23.6290000  18.2190000
 -95.1660000  23.8970000  19.2030000 -95.8390000  23.4050000  17.3100000
 -96.8660000  23.5030000  17.6290000 -97.8720000  20.9850000  16.5950000
 -98.8250000  21.6080000  17.0610000 -97.1910000  20.0810000  17.2920000
 -96.3170000  19.7720000  16.8910000 -97.3980000  19.8200000  18.7420000
 -98.2810000  20.3240000  19.1340000 -97.7340000  18.3390000  19.0150000
 -97.8400000  18.0310000  20.0550000 -99.1090000  17.9660000  18.4230000
 -99.2920000  18.0850000  17.3550000 -99.9630000  18.4000000  18.9420000
 -99.2210000  16.8940000  18.5850000 -96.7480000  17.5250000  18.4850000
 -95.9060000  17.6470000  18.9300000 -96.1230000  20.2340000  19.4890000
 -95.0140000  20.1270000  18.9500000 -96.2770000  20.6700000  20.7450000
 -97.1450000  20.4810000  21.2250000 -95.1540000  21.1080000  21.5710000
 -94.8260000  21.9910000  21.0220000 -95.6110000  21.4920000  22.9920000
 -95.9940000  20.6050000  23.4970000 -94.4790000  22.0880000  23.8130000
 -94.9210000  22.3010000  24.7860000 -93.8830000  21.2170000  24.0860000
 -94.0390000  22.9750000  23.3580000 -96.6770000  22.4140000  22.9390000
 -97.2600000  22.2880000  23.6910000 -94.1220000  19.9670000  21.6870000
 -94.5430000  18.8050000  21.8370000 -92.8080000  20.2520000  21.6360000
 -92.1090000  21.5420000  21.4160000 -91.9550000  22.0110000  22.3880000
 -92.4090000  22.2810000  20.6730000 -90.7640000  21.1310000  20.8390000
 -90.0040000  21.9110000  20.8910000 -90.8220000  20.8810000  19.7790000
 -90.4810000  19.8420000  21.5600000 -89.7910000  19.0160000  21.3900000
 -89.8650000  20.3340000  22.3120000 -91.8440000  19.1700000  21.7740000
 -92.1550000  18.4780000  20.9920000 -91.8510000  18.4770000  23.1440000
 -92.1820000  19.1020000  24.1480000 -91.5320000  17.1820000  23.2080000
 -91.6490000  16.6260000  22.3730000 -91.4210000  16.4630000  24.4810000
 -92.3210000  16.6150000  25.0780000 -91.2510000  14.9550000  24.2910000
 -91.5730000  14.4660000  25.2110000 -90.1700000  14.8140000  24.3070000
 -92.0690000  14.1220000  23.2990000 -92.5880000  13.1790000  23.4690000
 -92.9830000  14.7080000  23.1960000 -90.9290000  13.5310000  22.4400000
 -91.0160000  13.5360000  21.2010000 -89.9460000  12.9920000  23.0420000
 -90.2510000  16.9670000  25.3420000 -90.3440000  16.9600000  26.5760000
 -89.1680000  17.4120000  24.6970000 -89.1820000  17.4640000  23.6880000
 -87.9980000  17.9910000  25.3750000 -87.7450000  17.3570000  26.2250000
 -86.7920000  18.0570000  24.4320000 -85.9120000  17.8160000  25.0290000
 -86.5200000  19.0100000  23.9790000 -86.8660000  16.9150000  23.5310000
 -86.8050000  15.7350000  23.8520000 -86.9480000  17.2210000  22.4420000
 -88.2770000  19.3730000  25.9630000 -87.5770000  19.8050000  26.8780000
 -89.2500000  20.0890000  25.4050000 -88.9860000  20.1310000  24.4310000
 -89.6510000  21.3970000  25.8840000 -88.7910000  22.0070000  25.6060000
 -90.9230000  21.8840000  25.1910000 -90.6590000  22.7270000  24.5530000
 -91.3720000  21.0250000  24.6910000 -91.6930000  22.1830000  25.9020000
 -89.8430000  21.4400000  27.3930000 -90.5030000  20.5640000  27.9650000
 -89.2610000  22.4560000  28.0400000 -88.6260000  23.0910000  27.5770000
 -89.2420000  22.5960000  29.5050000 -89.6610000  21.7810000  30.0940000
 -87.7960000  22.6080000  30.0070000 -87.7940000  22.7260000  31.0910000
 -87.0610000  21.2850000  29.6790000 -86.2080000  21.4330000  29.0170000
 -86.6160000  20.9750000  30.6250000 -87.6190000  20.3970000  29.3830000
 -87.0650000  23.6900000  29.4300000 -86.3440000  23.9530000  30.0080000
 -89.9770000  23.8770000  29.8930000 -89.3380000  24.8590000  30.2950000
 -91.3230000  23.9090000  29.7650000 -92.2300000  22.8190000  29.3370000
 -92.3420000  22.6140000  28.2720000 -91.9120000  21.9760000  29.9500000
 -93.5390000  23.3210000  29.8220000 -94.6160000  23.3300000  29.9860000
 -93.9190000  22.3060000  29.9450000 -93.5320000  24.8100000  29.8210000
 -94.0900000  25.2310000  30.6570000 -93.9160000  25.1470000  28.8580000
 -92.0540000  25.1200000  30.1070000 -91.6690000  25.8740000  29.4220000
 -91.9020000  25.5090000  31.6000000 -91.7430000  24.6380000  32.4640000
 -91.9280000  26.8110000  31.8910000 -91.4430000  27.3900000  31.2210000
 -91.9220000  27.3180000  33.2650000 -91.1350000  26.7480000  33.7590000
 -91.4570000  28.7930000  33.3050000 -91.2910000  29.1540000  34.3200000
 -90.4610000  28.8620000  32.8660000 -92.4140000  29.8230000  32.7020000
 -93.4180000  29.6430000  33.0870000 -92.1140000  30.0410000  31.6780000
 -92.2300000  31.2180000  33.2310000 -91.0730000  31.6100000  33.4990000
 -93.2450000  31.9460000  33.3640000 -93.3020000  27.1610000  33.9440000
 -94.3210000  27.1030000  33.2460000 -93.3380000  27.1490000  35.2920000
 -92.1640000  27.0060000  36.1990000 -91.2890000  27.6560000  36.2140000
 -91.7830000  25.9910000  36.0870000 -92.7250000  27.1180000  37.5950000
 -92.1510000  27.7380000  38.2840000 -92.7120000  26.1350000  38.0660000
 -94.1430000  27.5970000  37.4690000 -94.7570000  27.1380000  38.2440000
 -94.1280000  28.6670000  37.6810000 -94.5700000  27.0330000  36.0970000
 -94.8500000  25.9810000  36.1560000 -95.8520000  27.7150000  35.6180000
 -96.8590000  27.0150000  35.4380000 -95.8910000  29.0500000  35.4310000
 -95.1710000  29.7070000  35.6980000 -97.1230000  29.7400000  35.0740000
 -98.0120000  29.3690000  35.5830000 -97.0460000  30.7760000  35.4040000
 -97.4330000  29.7900000  33.5920000 -97.9460000  30.8270000  33.1610000
 -97.1660000  28.7320000  32.8090000 -97.3380000  27.8020000  33.1610000
 -97.2640000  28.8000000  31.3680000 -97.4230000  29.8470000  31.1070000
 -96.0010000  28.2590000  30.6930000 -95.6220000  27.3990000  31.2440000
 -96.3300000  27.8590000  29.7340000 -94.9000000  29.3270000  30.5080000
 -93.9520000  28.8110000  30.3520000 -94.9230000  30.1290000  31.2450000
 -95.1220000  30.1950000  29.3010000 -96.2820000  30.3660000  28.8860000
 -94.1150000  30.7360000  28.7890000 -98.4560000  27.9980000  30.8440000
 -98.4660000  26.7650000  30.9210000 -99.4580000  28.6860000  30.2850000
 -99.6600000  29.6130000  30.6310000-100.5160000  28.0580000  29.5180000
-101.1020000  27.5940000  30.3110000-101.4680000  29.1050000  28.9090000
-101.8270000  29.6070000  29.8070000-101.1170000  29.7370000  28.0940000
-102.7640000  28.5390000  28.3770000-102.7790000  27.4150000  27.8360000
-103.7930000  29.2440000  28.4990000 -99.8790000  27.1790000  28.4150000
 -99.0700000  27.7070000  27.6340000-100.2210000  25.8820000  28.3240000
-100.9850000  25.1100000  29.3330000-100.6150000  25.2640000  30.3460000
-102.0640000  25.2540000  29.3950000-100.8670000  23.6590000  28.8650000
-101.6410000  22.8980000  28.9640000-100.1840000  23.3010000  29.6360000
-100.5430000  23.7430000  27.3790000-100.0420000  23.1760000  26.5940000
-101.5000000  23.3460000  27.0390000 -99.7120000  25.0040000  27.2710000
 -98.7240000  24.6560000  27.5700000 -99.8060000  25.5750000  25.8390000
 -98.9810000  25.2600000  24.9760000-100.8580000  26.3730000  25.5930000
-101.7120000  25.9780000  25.9600000-101.0560000  27.1230000  24.3790000
-101.3390000  26.2520000  23.7880000-102.3570000  27.9350000  24.3540000
-102.5900000  28.6140000  25.1740000-103.2060000  27.2560000  24.4260000
-102.4220000  28.6690000  22.9990000-101.5210000  29.0780000  22.5410000
-102.6950000  27.9080000  22.2690000-103.6130000  29.6040000  22.8500000
-103.3890000  29.9730000  21.8490000-103.8390000  30.2650000  23.6870000
-104.9650000  29.0550000  22.7160000-105.3990000  28.4500000  23.3980000
-105.7440000  29.5310000  21.7420000-105.3370000  30.4410000  20.8420000
-105.4150000  31.4350000  21.0020000-105.4370000  30.1920000  19.8690000
-106.9740000  29.0530000  21.6520000-107.2550000  28.2680000  21.0820000
-107.7540000  29.4650000  22.1440000 -99.8480000  28.0690000  24.0770000
 -99.2320000  28.0740000  23.0130000 -99.5640000  28.9230000  25.0590000
-100.2170000  28.9150000  25.8300000 -98.4280000  29.8820000  25.0000000
 -98.5000000  30.5230000  24.1220000 -98.3570000  30.7720000  26.2710000
 -98.2960000  30.2560000  27.2300000 -97.0890000  31.6680000  26.2440000
 -96.2180000  31.2230000  25.7640000 -97.1720000  32.6340000  25.7450000
 -96.7610000  31.9030000  27.2570000 -99.6040000  31.6490000  26.3810000
-100.5800000  31.1750000  26.4920000 -99.4100000  32.2460000  27.2720000
 -99.6850000  32.2210000  25.4570000 -97.1120000  29.1500000  24.7650000
 -96.3250000  29.5560000  23.9010000 -96.8730000  28.0760000  25.5290000
 -97.1810000  28.1300000  26.4890000 -95.7140000  27.2310000  25.3770000
 -94.9950000  27.9880000  25.6900000 -95.7090000  26.0370000  26.3920000
 -96.5580000  25.3570000  26.4530000 -94.5150000  25.1020000  26.1690000
 -93.5500000  25.4720000  26.5150000 -94.4260000  24.7900000  25.1280000
 -94.7210000  24.1900000  26.7300000 -95.6830000  26.5630000  27.6900000
 -94.9140000  27.1220000  27.8220000 -95.5740000  26.7110000  23.9340000
 -94.5090000  26.7890000  23.3180000 -96.6730000  26.1520000  23.4260000
 -97.2650000  25.7500000  24.1380000 -96.7230000  25.6260000  22.0640000
 -95.9370000  24.8720000  22.0290000 -98.1180000  25.0140000  21.7390000
 -97.9300000  24.6360000  20.7340000 -98.2890000  24.1550000  22.3870000
 -99.5110000  25.7110000  21.7540000 -99.5980000  25.8690000  22.8290000
 -99.6510000  26.5240000  21.0430000-100.7680000  24.8250000  21.4920000
-101.7100000  25.1400000  21.9420000-100.6350000  23.8230000  21.9010000
-101.2130000  24.5730000  20.1200000-102.0680000  25.0620000  19.8990000
-100.8130000  23.8240000  19.1020000 -99.7390000  23.0580000  19.1380000
-100.0930000  22.1260000  19.3020000 -98.7560000  23.2900000  19.1320000
-101.6330000  23.7910000  18.0380000-101.8150000  24.5290000  17.3740000
-102.3280000  23.0640000  17.9380000 -96.3390000  26.6580000  20.9990000
 -95.4740000  26.3860000  20.1560000 -96.9470000  27.8550000  21.0570000
 -97.3360000  28.1860000  21.9280000 -96.6630000  28.9200000  20.1100000
 -96.8900000  28.5850000  19.0980000 -97.5900000  30.1190000  20.3460000
 -97.1460000  30.8870000  19.7130000 -98.5940000  29.7960000  20.0700000
 -97.7000000  30.5960000  21.3190000 -95.1930000  29.3570000  20.2000000
 -94.4740000  29.4110000  19.2010000 -94.7580000  29.7000000  21.4180000
 -95.3910000  30.3610000  21.8450000 -93.3720000  30.0540000  21.7310000
 -93.1350000  31.0180000  21.2810000 -93.2270000  30.0850000  23.2650000
 -93.6800000  31.0130000  23.6140000 -93.8020000  29.2590000  23.6820000
 -91.7850000  30.1770000  23.7720000 -91.3240000  30.9420000  23.1480000
 -91.2840000  29.2140000  23.6680000 -91.7500000  30.4510000  25.2970000
 -90.7380000  30.6790000  25.6290000 -92.4380000  31.2340000  25.6170000
 -92.2340000  29.2370000  26.1000000 -91.4460000  28.4950000  25.9690000
 -93.2630000  28.9230000  25.9250000 -92.0780000  29.4330000  27.5480000
 -92.3790000  30.3720000  27.7680000 -92.4840000  28.6560000  28.0490000
 -91.1380000  29.4550000  27.9180000 -92.3770000  29.1050000  21.0950000
 -91.5160000  29.5340000  20.3170000 -92.5040000  27.8160000  21.4120000
 -92.8350000  27.5610000  22.3310000 -91.6260000  26.8310000  20.8670000
 -90.6050000  27.1700000  21.0410000 -91.7580000  25.5110000  21.6080000
 -92.1760000  25.0130000  20.7330000 -92.4800000  24.9480000  22.1990000
 -90.8570000  25.3960000  22.8310000 -89.4870000  25.1470000  22.7160000
 -89.1260000  24.8100000  21.7550000 -88.6680000  25.1300000  23.8720000
 -87.5930000  25.0650000  23.9560000 -89.2240000  25.2980000  25.1240000
 -88.4330000  25.2630000  26.2220000 -88.4300000  26.1070000  26.6790000
 -90.5720000  25.5280000  25.2650000 -90.9100000  25.6110000  26.2880000
 -91.3820000  25.6420000  24.1410000 -92.2460000  26.2430000  24.3810000
 -91.7720000  26.6480000  19.3350000 -90.8040000  26.2600000  18.6740000
 -92.9680000  26.9110000  18.7870000 -93.7610000  27.1360000  19.3710000
 -93.1490000  26.8850000  17.3340000 -92.8050000  25.9290000  16.9410000
 -94.6280000  27.0660000  16.9290000 -95.1640000  27.9340000  17.3130000
 -95.1620000  26.1680000  17.2390000 -94.8040000  27.2410000  15.4540000
 -94.5770000  26.1700000  14.5570000 -93.9910000  25.2760000  14.7130000
 -94.7410000  26.3350000  13.2030000 -94.3560000  25.5690000  12.5460000
 -95.0630000  27.5690000  12.6810000 -94.8340000  27.6600000  11.6290000
 -95.2280000  28.6610000  13.5360000 -94.9310000  29.6370000  13.1820000
 -95.1510000  28.5050000  14.9090000 -95.4130000  29.4080000  15.4410000
 -92.2980000  27.9350000  16.6280000 -91.6880000  27.6460000  15.5890000
 -92.2550000  29.1540000  17.1910000 -92.7000000  29.3410000  18.0780000
 -91.4480000  30.2230000  16.6550000 -91.8520000  30.3330000  15.6480000
 -91.6740000  31.5350000  17.4320000 -91.6320000  31.3840000  18.5110000
 -90.6510000  32.6090000  17.0090000 -90.6450000  32.3800000  15.9430000
 -89.7940000  33.2800000  17.0690000 -90.9420000  33.1730000  17.8950000
 -93.1150000  32.0610000  17.1070000 -93.9090000  31.3320000  16.9470000
 -93.0800000  32.6090000  16.1650000 -93.6800000  32.9600000  18.1850000
 -93.9800000  32.3830000  19.0600000 -94.5970000  33.3070000  17.7080000
 -93.0850000  33.8640000  18.3130000 -89.9640000  29.8170000  16.7260000
 -89.2370000  29.8670000  15.7270000 -89.5060000  29.4050000  17.9290000
 -89.8810000  29.8300000  18.7650000 -88.1450000  28.9270000  18.0940000
 -87.4690000  29.7450000  17.8450000 -87.9710000  28.2900000  19.4990000
 -88.5140000  27.3450000  19.4820000 -88.3660000  28.8680000  20.3340000
 -86.5170000  28.0560000  19.8650000 -85.8930000  27.7590000  19.0220000
 -86.1110000  29.0130000  20.1940000 -86.3380000  26.8750000  20.8330000
 -85.4010000  27.2030000  21.2830000 -86.7810000  26.6470000  21.8020000
 -86.6770000  25.5590000  20.1880000 -87.3730000  25.4440000  19.4650000
 -86.4980000  24.3830000  20.7600000 -85.8540000  24.2950000  21.9270000
 -85.9870000  24.0340000  22.8940000 -84.9440000  23.9100000  21.7190000
 -86.8450000  23.2940000  20.1050000 -87.1770000  22.5220000  20.6660000
 -86.3530000  22.8920000  19.3200000 -87.7660000  27.9140000  17.0270000
 -86.7260000  28.0900000  16.3750000 -88.5950000  26.8750000  16.8150000
 -89.5390000  26.7950000  17.1630000 -88.3550000  25.8580000  15.7940000
 -87.4190000  25.3070000  15.8830000 -89.3720000  24.7030000  15.9230000
 -90.4140000  24.8720000  15.6540000 -89.1160000  23.9340000  15.1940000
 -89.1570000  23.8700000  17.1840000 -88.0040000  23.7510000  17.6530000
 -90.1190000  23.2450000  17.6520000 -88.3530000  26.4480000  14.3900000
 -87.6090000  25.9640000  13.5320000 -89.1840000  27.4660000  14.1320000
 -89.9350000  27.6950000  14.7670000 -89.1780000  28.1640000  12.8520000
 -89.3460000  27.3850000  12.1080000 -90.2730000  29.2940000  12.7750000
 -89.9570000  30.2080000  12.2710000 -90.6970000  29.7120000  13.6880000
 -91.5480000  28.8440000  12.1050000 -91.8840000  27.9020000  12.5400000
 -92.2790000  29.6520000  12.0960000 -91.3870000  28.5320000  10.6450000
 -90.3390000  28.8550000  10.0440000 -92.3360000  27.9390000  10.0850000
 -87.8080000  28.7430000  12.5050000 -87.3710000  28.6670000  11.3490000
 -87.1310000  29.3400000  13.4910000 -87.6480000  29.7440000  14.2590000
 -85.7610000  29.7900000  13.3180000 -85.6600000  30.2920000  12.3560000
 -85.3690000  30.7540000  14.4320000 -84.2990000  30.9040000  14.2880000
 -85.5040000  30.3040000  15.4160000 -86.0520000  32.0900000  14.3030000
 -85.5280000  33.0450000  13.4230000 -84.4890000  32.9850000  13.1340000
 -86.1700000  34.2620000  13.2320000 -85.8140000  34.9090000  12.4440000
 -87.3110000  34.5560000  13.9770000 -87.9850000  35.3420000  13.6700000
 -87.7730000  33.6650000  14.9260000 -88.3180000  34.1390000  15.7290000
 -87.1840000  32.4100000  15.0690000 -87.5370000  31.7860000  15.8760000
 -84.7470000  28.6560000  13.2660000 -83.7170000  28.8000000  12.5960000
 -84.9860000  27.5500000  13.9910000 -85.5900000  27.6080000  14.7980000
 -84.0250000  26.4580000  14.0210000 -83.0300000  26.9040000  14.0270000
 -84.2150000  25.5770000  15.2750000 -85.1570000  25.0310000  15.2440000
 -83.5000000  24.7580000  15.1990000 -83.8280000  26.2580000  16.6360000
 -84.2250000  27.2470000  16.8650000 -84.2560000  25.3310000  17.7820000
 -83.9880000  24.3060000  17.5250000 -85.3430000  25.3250000  17.8640000
 -83.7480000  25.4550000  18.7390000 -82.3330000  26.5660000  16.7050000
 -81.9970000  27.2910000  15.9630000 -81.7530000  25.6460000  16.6360000
 -82.0560000  26.9440000  17.6890000 -83.9880000  25.6040000  12.7600000
 -82.9010000  25.1620000  12.3710000 -85.1320000  25.4040000  12.0740000
 -85.9380000  25.9920000  12.2290000 -85.1720000  24.7120000  10.7830000
 -84.7990000  23.6900000  10.8430000 -86.6160000  24.7210000  10.2330000
 -86.5590000  24.3290000   9.2180000 -87.1480000  25.6580000  10.0710000
 -87.4080000  23.6890000  11.0570000 -87.8690000  24.1040000  11.9530000
 -88.2540000  23.5010000  10.3960000 -86.7900000  22.2430000  11.3540000
 -87.6090000  21.8790000  11.9750000 -85.9860000  22.0260000  12.0570000
 -86.4740000  21.2480000  10.2490000 -85.5330000  21.0950000   9.9150000
 -87.3300000  20.4790000   9.5690000 -88.6220000  20.6470000   9.8120000
 -89.2300000  21.1130000   9.1540000 -89.1410000  19.9600000  10.3400000
 -86.9200000  19.5740000   8.6530000 -86.9130000  19.7230000   7.6540000
 -86.7130000  18.6150000   8.8920000 -84.2050000  25.3060000   9.7740000
 -83.6200000  24.5800000   8.9680000 -84.0270000  26.6270000   9.8290000
 -84.6880000  27.1730000  10.3630000 -83.0720000  27.3340000   8.9830000
 -83.3240000  27.0170000   7.9710000 -83.2610000  28.8660000   9.0770000
 -83.1940000  29.2270000  10.1030000 -82.1780000  29.5880000   8.2260000
 -81.6230000  30.3450000   8.7790000 -82.6300000  29.8920000   7.2820000
 -81.4000000  28.9500000   7.8080000 -84.6680000  29.2760000   8.5640000
 -85.5420000  28.7020000   8.8720000 -84.7370000  29.0930000   7.4920000
 -85.0490000  30.7120000   8.8820000 -85.9660000  30.7790000   8.2980000
 -85.1870000  30.9030000   9.9470000 -84.4270000  31.4800000   8.4230000
 -81.6220000  26.9580000   9.3460000 -80.8190000  26.6570000   8.4540000
 -81.2930000  26.9710000  10.6490000 -81.8640000  27.4770000  11.3110000
 -79.9920000  26.5640000  11.1490000 -79.3530000  27.3220000  10.6950000
 -79.9260000  26.6020000  12.7020000 -80.4020000  25.8430000  13.3230000
 -78.8770000  26.4250000  12.9410000 -80.4910000  27.8030000  13.1830000
 -79.7950000  28.4450000  13.3410000 -79.6110000  25.1470000  10.7190000
 -78.4560000  24.8730000  10.3610000 -80.5940000  24.2170000  10.7610000
 -81.5440000  24.3440000  11.0790000 -80.3860000  22.8290000  10.3830000
 -79.3890000  22.4610000  10.6270000 -81.3850000  21.9390000  11.1500000
 -81.2930000  20.8920000  10.8580000 -81.1590000  22.0380000  12.6870000
 -80.8860000  22.9090000  13.2830000 -81.9710000  21.5620000  13.2380000
 -80.3060000  21.3700000  12.8090000 -82.7200000  22.2580000  10.8240000
 -83.3100000  21.6590000  11.2880000 -80.5260000  22.6070000   8.8850000
 -80.2030000  21.5050000   8.4230000 -80.9830000  23.6020000   8.0990000
 -81.3670000  24.4630000   8.4610000 -81.0690000  23.4620000   6.6570000
 -81.5990000  22.5370000   6.4320000 -81.8360000  24.6540000   6.0220000
 -82.7750000  24.9830000   6.4660000 -82.2010000  24.1750000   5.1130000
 -81.3110000  25.5160000   5.6100000 -79.6920000  23.3320000   6.0070000
 -79.4620000  22.4320000   5.1870000 -78.7820000  24.2510000   6.3670000
 -79.0380000  25.0970000   6.8560000 -77.3780000  24.1450000   6.0400000
 -77.2730000  23.5390000   5.1400000 -76.7870000  25.5220000   5.7080000
 -76.4600000  26.1620000   6.5270000 -75.9980000  25.2140000   5.0220000
 -77.5040000  26.1530000   4.6770000 -77.7940000  27.0300000   4.9360000
 -76.6820000  23.4760000   7.2210000 -76.1310000  24.1510000   8.0980000
 -76.7350000  22.1350000   7.2710000 -76.8580000  21.5600000   6.4500000
 -76.3100000  21.3530000   8.4250000 -76.4590000  21.7680000   9.4220000
 -76.8580000  20.4110000   8.3920000 -74.8630000  20.9540000   8.3300000
 -74.5590000  19.7770000   8.5390000 -73.9690000  21.9030000   8.0290000
 -74.2620000  22.8660000   7.9480000 -72.5340000  21.6080000   7.9990000
 -72.3960000  20.6600000   7.4800000 -71.7250000  22.6460000   7.1950000
 -72.0280000  22.6450000   6.1480000 -70.6830000  22.3310000   7.1450000
 -71.7850000  24.0610000   7.7850000 -72.8980000  24.6150000   7.9220000
 -70.7050000  24.6130000   8.0860000 -71.9820000  21.4330000   9.4250000
 -71.1650000  20.5240000   9.6460000 -72.4470000  22.2420000  10.4270000
 -73.1750000  22.9390000  10.3830000 -72.0040000  22.0710000  11.7800000
 -72.5870000  21.1500000  11.8020000 -72.2270000  21.9630000  12.8410000
 -70.7300000  22.7770000  12.1530000 -70.2130000  22.6100000  13.2580000
 -70.2360000  23.6400000  11.2500000 -70.2580000  23.3270000  10.2900000
 -69.1920000  24.5690000  11.5840000 -68.4630000  23.8710000  11.9970000
 -68.6460000  25.2950000  10.3160000 -69.2590000  25.8590000   9.6140000
 -68.1590000  24.5340000   9.7070000 -67.5880000  26.0640000  11.0820000
 -66.9700000  25.4360000  11.7240000 -68.2690000  26.8720000  11.3500000
 -66.5000000  26.8480000  10.5780000 -66.5380000  26.5780000   9.5230000
 -65.4250000  26.6720000  10.5490000 -66.3190000  27.8300000  11.6980000
 -66.5790000  27.4240000  12.5860000 -65.4270000  28.7140000  12.1320000
 -64.2520000  28.9380000  11.5390000 -63.7430000  28.3730000  10.8740000
 -63.5650000  29.5670000  11.9290000 -65.7530000  29.4460000  13.2120000
 -66.4930000  29.3990000  13.8980000 -65.1050000  30.1880000  13.4330000
 -69.6370000  25.5930000  12.6520000 -68.8310000  26.0320000  13.4860000
 -70.8980000  25.9980000  12.5760000 -71.5650000  25.4940000  12.0090000
 -71.4640000  26.9490000  13.4850000 -70.9160000  26.7680000  14.4090000
 -71.4420000  28.3770000  12.8660000 -71.2010000  28.9110000  13.7850000
 -70.6570000  28.8380000  12.2670000 -72.3920000  28.5580000  11.6890000
 -72.2560000  27.8160000  10.5050000 -71.5360000  27.2120000  10.1340000
 -73.1870000  28.1670000   9.6610000 -73.3550000  27.5320000   8.8030000
 -73.9170000  29.1560000  10.1730000 -73.4270000  29.4360000  11.4350000
 -73.8140000  30.3290000  11.9030000 -72.8760000  26.5440000  13.9100000
 -73.5060000  25.7350000  13.2180000 -73.3630000  27.0300000  15.0740000
 -72.7670000  27.2720000  15.8520000 -74.6610000  26.6630000  15.6350000
 -75.2480000  26.0540000  14.9480000 -74.3740000  25.6640000  16.7420000
 -74.4390000  25.1910000  17.7220000 -74.9450000  26.2400000  17.4700000
 -73.7810000  24.3620000  16.3400000 -74.5570000  23.2840000  15.8650000
 -75.6340000  23.2170000  15.9130000 -73.9440000  22.1020000  15.4550000
 -74.5360000  21.2550000  15.1390000 -72.5540000  21.9690000  15.5200000
 -71.9680000  20.8050000  15.1510000 -71.4740000  20.4190000  15.8780000
 -71.7760000  23.0230000  16.0090000 -70.7280000  22.8710000  16.2220000
 -72.3760000  24.2070000  16.4120000 -71.7070000  24.8550000  16.9590000
 -75.4360000  27.8850000  16.1000000 -74.8630000  28.9500000  16.3560000
 -76.7540000  27.6890000  16.2640000 -77.1530000  26.7610000  16.2810000
 -77.6730000  28.7390000  16.6870000 -77.1790000  29.7110000  16.6700000
 -78.8380000  28.8500000  15.7290000 -78.4670000  29.5270000  14.9600000
 -79.3450000  27.8870000  15.6780000 -80.2220000  29.9110000  16.2190000
 -81.1600000  29.9020000  17.1700000 -78.2220000  28.4350000  18.0760000
 -78.9730000  27.4590000  18.2260000 -77.8730000  29.2570000  19.0840000
 -77.2550000  30.0500000  18.9870000 -78.2340000  29.0410000  20.4630000
 -78.3270000  27.9630000  20.5930000 -77.0510000  29.3460000  21.3880000
 -77.4220000  28.9920000  22.3500000 -76.7010000  30.3760000  21.4480000
 -75.8370000  28.4970000  21.1240000 -75.7190000  27.2020000  21.6860000
 -76.3290000  26.7920000  22.4770000 -74.6070000  26.4130000  21.4280000
 -74.5700000  25.4140000  21.8350000 -73.5560000  26.9040000  20.6500000
 -72.4560000  26.1480000  20.4110000 -71.6940000  26.6870000  20.1870000
 -73.6720000  28.1690000  20.0770000 -73.1690000  28.3050000  19.1310000
 -74.7720000  28.9810000  20.3370000 -74.7310000  29.9720000  19.9100000
 -79.4660000  29.9020000  20.8520000 -79.3300000  31.1240000  21.0220000
 -80.6600000  29.2910000  20.9560000 -80.9400000  27.8400000  20.8810000
 -80.6590000  27.2350000  20.0190000 -80.4930000  27.3210000  21.7290000
 -82.4210000  27.7220000  21.0480000 -82.6280000  27.5350000  22.1020000
 -82.7440000  26.7960000  20.5720000 -82.9920000  29.1100000  20.7390000
 -83.8640000  29.3460000  21.3470000 -83.1170000  29.1470000  19.6570000
 -81.8830000  30.0520000  21.2020000 -81.8630000  30.9840000  20.6370000
 -82.0900000  30.4390000  22.6700000 -81.4980000  29.8360000  23.5690000
 -82.9720000  31.4230000  22.8870000 -83.5460000  31.7360000  22.1170000
 -83.3620000  31.8940000  24.2080000 -83.4620000  30.9830000  24.7990000
 -82.3390000  32.9170000  24.7600000 -82.0500000  33.5760000  23.9410000
 -82.7280000  33.3260000  25.6930000 -81.0360000  32.3260000  25.1590000
 -80.9050000  31.5670000  26.2990000 -79.6550000  31.1660000  26.3760000
 -79.4480000  30.2640000  26.9340000 -78.9530000  31.6650000  25.3780000
 -77.9590000  31.7050000  25.5550000 -79.8060000  32.4240000  24.5710000
 -79.5280000  33.1490000  23.8210000 -84.7320000  32.5520000  24.1690000
 -85.1260000  33.1090000  23.1460000 -85.4610000  32.4820000  25.2840000
 -85.1270000  31.9430000  26.0700000 -86.7560000  33.1750000  25.4640000
 -87.2340000  33.5710000  24.5690000 -87.7750000  32.1660000  26.0280000
 -88.7750000  32.4540000  26.3540000 -87.3560000  31.8570000  26.9860000
 -87.9680000  30.9650000  25.1640000 -88.4120000  31.0830000  23.8360000
 -88.4510000  32.0280000  23.3160000 -88.6370000  29.9510000  23.0610000
 -89.1720000  30.1070000  22.1360000 -88.3160000  28.6820000  23.5740000
 -88.2300000  27.8000000  22.9570000 -87.8180000  28.5900000  24.8690000
 -87.0380000  27.8750000  25.0870000 -87.7070000  29.6900000  25.6810000
 -87.4030000  29.4610000  26.6920000 -86.5050000  34.3140000  26.4340000
 -86.1620000  34.0570000  27.5910000 -86.6550000  35.5450000  25.9620000
 -86.4680000  35.6520000  24.9760000 -86.4030000  36.7450000  26.7530000
 -86.2370000  36.3440000  27.7530000 -85.2240000  37.5710000  26.0980000
 -85.2380000  38.6370000  26.3220000 -83.8340000  36.8960000  26.4480000
 -83.4040000  36.8820000  25.4470000 -83.9660000  35.9040000  26.8810000
 -83.0410000  37.3740000  27.0230000 -85.3300000  37.5640000  24.6860000
 -84.8160000  38.3020000  24.3510000 -87.6060000  37.6680000  26.8420000
 -88.2130000  38.0080000  25.8370000 -88.0940000  37.9640000  28.0360000
 -87.8780000  37.3090000  28.7730000 -89.1540000  38.8680000  28.3920000
 -90.0670000  38.6220000  27.8500000 -89.5940000  38.5610000  29.8350000
 -90.6200000  38.8600000  30.0480000 -89.6690000  37.4970000  30.0630000
 -88.3240000  38.7200000  31.0590000 -88.2780000  37.7900000  32.0170000
 -88.9260000  40.3570000  28.1380000 -89.8580000  41.1160000  28.4280000
 -87.8050000  40.8350000  27.5510000 -87.3370000  40.3690000  26.7860000
 -87.3690000  42.1980000  27.5830000 -86.3890000  42.3500000  27.1310000
 -88.4020000  43.0840000  26.8460000 -89.2170000  42.6020000  26.3050000
 -87.8280000  43.6880000  26.1430000 -88.8990000  43.8370000  27.4570000
 -87.1080000  42.6460000  29.0050000 -86.0310000  43.1620000  29.2910000
 -88.0800000  42.5070000  29.9030000 -88.8350000  43.1410000  29.6860000
 -87.8930000  42.4780000  31.3450000 -87.5870000  43.4920000  31.6020000
 -89.2020000  42.1130000  32.0890000 -89.9690000  42.8450000  31.8370000
 -89.1170000  42.2950000  33.6010000 -89.0070000  43.3680000  33.7530000
 -88.3620000  41.8380000  34.2420000 -90.0660000  42.0400000  34.0720000
 -89.8500000  40.8120000  31.8780000 -90.8190000  40.5950000  32.3290000
 -90.1890000  40.8710000  30.8430000 -89.3440000  40.1140000  32.5450000
 -86.8050000  41.5680000  31.9030000 -86.3770000  41.7940000  33.0370000
 -86.3260000  40.5950000  31.1480000 -86.6030000  40.6140000  30.1760000
 -85.2970000  39.6520000  31.5460000 -85.8220000  39.0370000  32.2770000
 -84.7790000  38.8190000  30.3710000 -83.7400000  39.0840000  30.1790000
 -85.1170000  37.8470000  30.7300000 -85.2520000  38.6940000  29.0280000
 -86.1540000  39.3370000  28.6200000 -84.5440000  37.9470000  28.4720000
 -84.0600000  40.2480000  32.2810000 -83.3910000  41.1750000  31.8000000
 -83.7240000  39.6620000  33.4470000 -84.0940000  38.7560000  33.6960000
 -82.7300000  40.2020000  34.3710000 -82.7970000  41.2890000  34.3470000
 -83.0110000  39.7400000  35.8280000 -82.7970000  38.7020000  36.0820000
 -84.4600000  39.9600000  36.2960000 -84.8130000  40.9840000  36.1740000
 -84.4350000  39.8190000  37.3770000 -85.2300000  39.2690000  35.9520000
 -82.2010000  40.4460000  36.7480000 -81.3860000  40.7590000  36.3490000
 -81.3100000  39.7820000  33.9980000 -80.4000000  40.6060000  34.1300000
 -81.0920000  38.5220000  33.5500000 -81.8060000  37.8090000  33.5070000
 -79.7620000  38.0080000  33.2000000 -78.9900000  38.7530000  33.3910000
 -79.4000000  36.8670000  34.1590000 -78.4090000  37.0610000  34.5710000
 -80.0350000  36.9430000  35.0410000 -79.4650000  35.3990000  33.6780000
 -78.9400000  35.1110000  32.7670000 -78.7080000  35.0040000  34.3560000
 -80.4390000  34.3890000  34.2330000 -80.8460000  34.5120000  35.4170000
 -80.7170000  33.4020000  33.5140000 -79.6720000  37.5750000  31.7240000
 -79.7130000  36.4200000  31.3500000 -79.5650000  38.5160000  30.8030000
 -79.8730000  39.4390000  31.0750000 -79.1930000  38.2440000  29.3930000
 -79.6120000  37.2990000  29.0480000 -79.7420000  39.3530000  28.4720000
 -79.0800000  39.5370000  27.6250000 -79.8030000  40.3270000  28.9570000
 -81.1720000  39.0800000  28.0480000 -81.8770000  38.3510000  28.7240000
 -81.5880000  39.7680000  26.9980000 -81.9080000  40.6550000  27.3590000
 -81.9910000  39.4360000  26.1330000 -77.6820000  38.1770000  29.2170000
 -77.1870000  37.4420000  28.3610000 -76.9470000  38.9770000  30.0060000
 -77.3680000  39.8010000  30.4100000 -75.4990000  39.0150000  29.9480000
 -75.1740000  39.3980000  28.9810000 -74.9530000  40.0240000  30.9710000
 -74.2780000  40.7280000  30.4830000 -74.5300000  39.5380000  31.8500000
 -75.6680000  40.6860000  31.4580000 -74.9270000  37.6240000  30.2030000
 -74.0430000  37.1720000  29.4770000 -75.4570000  36.9430000  31.2380000
 -75.9750000  37.4510000  31.9400000 -75.0000000  35.6120000  31.5780000
 -73.9470000  35.8600000  31.7150000 -75.5830000  35.1320000  32.9290000
 -75.2850000  35.8590000  33.6840000 -76.6690000  35.0600000  32.9910000
 -75.1220000  33.7600000  33.4120000 -75.7010000  32.9620000  32.9470000
 -75.4610000  33.6530000  34.4430000 -73.5890000  33.5550000  33.3910000
 -73.1200000  33.3630000  32.4260000 -73.4370000  32.6200000  33.9300000
 -72.8940000  34.6390000  34.1350000 -72.7640000  35.5640000  33.7510000
 -72.6990000  34.6420000  35.4430000 -73.1770000  33.7150000  36.2730000
 -74.0120000  33.1540000  36.3600000 -72.6010000  33.5140000  37.0780000
 -72.0470000  35.6740000  35.9690000 -72.7110000  36.4130000  36.1520000
 -71.4720000  35.6760000  36.7990000 -75.3020000  34.6070000  30.4540000
 -74.4750000  33.7490000  30.1580000 -76.4890000  34.7000000  29.8310000
 -77.2470000  35.1410000  30.3320000 -76.8070000  33.8410000  28.6790000
 -76.7650000  32.7930000  28.9740000 -78.2030000  34.1170000  28.1360000
 -78.3420000  35.1680000  27.8830000 -78.2640000  33.5940000  27.1810000
 -79.3200000  33.5060000  29.0100000 -79.1550000  33.4290000  30.0840000
 -79.3920000  32.4380000  28.8030000 -80.6240000  34.2630000  28.7980000
 -80.6000000  34.9660000  29.6310000 -80.7850000  34.5750000  27.7660000
 -81.8160000  33.4860000  29.1130000 -81.7230000  32.4950000  29.2830000
 -83.0110000  34.0140000  29.3710000 -83.2180000  35.3190000  29.4700000
 -82.6390000  36.1120000  29.2330000 -83.7120000  35.5010000  30.3330000
 -84.0050000  33.1610000  29.6760000 -84.9930000  33.1380000  29.4670000
 -83.8570000  32.5350000  30.4540000 -75.7950000  34.0240000  27.5540000
 -75.2400000  33.0410000  27.0620000 -75.5160000  35.2810000  27.1930000
 -75.6910000  36.0120000  27.8680000 -74.5370000  35.5780000  26.1600000
 -74.9440000  35.0440000  25.3010000 -74.4230000  37.1090000  25.8790000
 -74.2570000  37.7050000  26.7760000 -73.2050000  37.4540000  25.0120000
 -73.0260000  38.5120000  25.2030000 -73.3490000  37.1650000  23.9710000
 -72.2690000  36.9760000  25.3020000 -75.7210000  37.6090000  25.1850000
 -76.5800000  37.1030000  25.6250000 -75.7500000  37.3720000  24.1210000
 -75.9220000  39.1250000  25.3150000 -76.3150000  39.2840000  26.3190000
 -75.0030000  39.7020000  25.2160000 -76.6830000  39.5620000  24.6680000
 -73.1750000  34.9710000  26.5570000 -72.5400000  34.2910000  25.7490000
 -72.7260000  35.2350000  27.7970000 -72.7220000  36.2300000  27.9700000
 -71.5150000  34.6810000  28.3720000 -70.7090000  35.1170000  27.7820000
 -71.3980000  35.0580000  29.8850000 -71.2680000  36.1400000  29.8530000
 -72.1970000  34.7860000  30.5750000 -70.2220000  34.4540000  30.5940000
 -70.2840000  33.1890000  31.2520000 -71.0720000  32.4650000  31.3980000
 -69.2030000  32.7010000  31.9400000 -69.3270000  31.9030000  32.6570000
 -68.0250000  33.3960000  31.9940000 -67.2740000  32.9010000  32.5920000
 -67.9430000  34.6750000  31.4230000 -67.2060000  35.3800000  31.7760000
 -69.0310000  35.2010000  30.7300000 -68.9590000  36.2600000  30.5330000
 -71.4340000  33.1810000  28.1720000 -70.5500000  32.7180000  27.4390000
 -72.3690000  32.4080000  28.7680000 -72.8940000  32.6540000  29.5950000
 -72.4290000  30.9730000  28.6330000 -71.6260000  30.4690000  29.1710000
 -73.6930000  30.4190000  29.3260000 -73.6680000  29.3310000  29.2580000
 -74.6740000  30.6340000  28.9010000 -73.6740000  30.5920000  30.8190000
 -72.6090000  30.6870000  31.4380000 -74.8360000  30.4860000  31.4740000
 -75.7230000  30.9690000  31.4650000 -75.0200000  29.5640000  31.8420000
 -72.3760000  30.5060000  27.1930000 -71.6680000  29.5470000  26.8930000
 -73.1250000  31.1680000  26.3160000 -73.6540000  31.9600000  26.6520000
 -73.1620000  30.7810000  24.9040000 -73.4150000  29.7210000  24.8710000
 -74.2760000  31.5030000  24.1220000 -74.1530000  31.1720000  23.0910000
 -74.3570000  32.5790000  24.2770000 -75.6590000  30.9700000  24.4400000
 -75.8200000  30.1190000  25.3440000 -76.6080000  31.3930000  23.7490000
 -71.8000000  30.9690000  24.2140000 -71.3900000  30.1250000  23.4060000
 -71.0810000  32.0700000  24.5210000 -71.4210000  32.8280000  25.0940000
 -69.7450000  32.2810000  24.0070000 -69.7520000  32.3190000  22.9180000
 -69.2420000  33.7190000  24.2970000 -69.3730000  34.1910000  25.2710000
 -68.2930000  33.8370000  23.7750000 -70.1180000  34.9340000  23.3140000
 -69.8350000  36.2350000  23.4200000 -68.7810000  31.2150000  24.5540000
 -68.0440000  30.5870000  23.7900000 -68.7800000  31.0180000  25.8860000
 -68.8410000  31.8560000  26.4460000 -68.0400000  29.9570000  26.5640000
 -66.9770000  30.1990000  26.5530000 -68.5250000  29.8150000  28.0300000
 -69.5480000  29.4420000  28.0690000 -68.3900000  30.7420000  28.5870000
 -67.7870000  28.7820000  28.8520000 -66.7230000  28.9910000  28.7440000
 -68.0100000  27.7590000  28.5500000 -68.2940000  28.7830000  30.3240000
 -69.0350000  27.9870000  30.3980000 -68.8630000  29.5890000  30.7860000
 -67.2350000  28.4350000  31.2600000 -67.4010000  27.5850000  31.7800000
 -66.1920000  29.2050000  31.5900000 -65.9980000  30.4160000  31.0750000
 -66.6760000  30.9900000  30.5950000 -65.3230000  31.0110000  31.5360000
 -65.3750000  28.7490000  32.5250000 -64.5200000  29.0190000  32.9890000
 -65.9370000  28.4790000  33.3190000 -68.2140000  28.6390000  25.8340000
 -67.2050000  28.0220000  25.4750000 -69.4680000  28.2210000  25.5850000
 -70.3200000  28.7020000  25.8370000 -69.7630000  27.0120000  24.8530000
 -69.4170000  26.1330000  25.3980000 -71.2880000  26.7810000  24.7300000
 -71.3960000  25.8550000  24.1650000 -71.9040000  27.5520000  24.2680000
 -71.9390000  26.3760000  26.0420000 -71.3440000  26.5440000  27.1290000
 -73.0700000  25.8350000  25.9730000 -69.1170000  27.0360000  23.4730000
 -68.4310000  26.0800000  23.0990000 -69.3260000  28.1330000  22.7280000
 -69.6620000  28.9640000  23.1940000 -68.8150000  28.2480000  21.3510000
 -69.2210000  27.4520000  20.7270000 -69.1310000  29.6370000  20.7180000
 -68.8080000  30.5030000  21.2970000 -68.2910000  29.9160000  19.4530000
 -67.2300000  29.6670000  19.4930000 -68.2500000  30.9850000  19.2450000
 -68.6360000  29.4000000  18.5570000 -70.6290000  29.6810000  20.3460000
 -70.7190000  29.1070000  19.4240000 -71.2610000  29.1900000  21.0860000
 -71.1890000  31.1130000  20.2260000 -72.2140000  31.1240000  20.5950000
 -71.2020000  31.4610000  19.1930000 -70.6260000  31.8640000  20.7800000
 -67.3210000  27.9720000  21.3210000 -66.8680000  27.0710000  20.5970000
 -66.5310000  28.7460000  22.0920000 -66.8130000  29.6120000  22.5280000
 -65.1000000  28.6320000  22.0200000 -64.8930000  28.6820000  20.9510000
 -64.4250000  29.8960000  22.5490000 -64.9050000  30.7570000  22.0840000
 -64.4180000  29.9670000  24.0720000 -63.5320000  29.4190000  24.3920000
 -64.1910000  31.0280000  24.1830000 -65.3720000  29.8460000  24.5840000
 -62.9780000  30.0530000  22.0040000 -63.0140000  30.1620000  20.9210000
 -62.2440000  29.2840000  22.2450000 -62.3020000  31.3690000  22.3680000
 -61.6850000  31.5870000  21.4960000 -62.9300000  32.2560000  22.4430000
 -61.5810000  31.3470000  23.1860000 -64.6020000  27.3200000  22.6510000
 -63.6690000  26.7110000  22.1350000 -65.2290000  26.8370000  23.7330000
 -65.5000000  27.5330000  24.4130000 -64.9100000  25.5170000  24.2860000
 -63.8550000  25.4840000  24.5600000 -65.7380000  25.2000000  25.5630000
 -66.7560000  24.9250000  25.2860000 -65.8820000  25.9990000  26.2910000
 -65.1700000  24.0490000  26.3810000 -64.8540000  23.2290000  25.7360000
 -64.4270000  24.4770000  27.0550000 -66.2260000  23.3850000  27.2280000
 -67.1820000  22.8080000  26.7070000 -66.0960000  23.4040000  28.5490000
 -66.8770000  22.9400000  28.9910000 -65.9350000  24.2210000  29.1190000
 -65.1100000  24.4150000  23.2460000 -64.3120000  23.4830000  23.1810000
 -66.1500000  24.5280000  22.4070000 -66.7250000  25.3570000  22.4460000
 -66.3800000  23.5490000  21.3220000 -66.1910000  22.5540000  21.7240000
 -67.8410000  23.6950000  20.8090000 -68.5280000  23.8140000  21.6470000
 -67.7860000  24.6290000  20.2500000 -68.6970000  22.8960000  19.8080000
 -68.4340000  23.2280000  18.8030000 -69.7340000  23.2200000  19.8920000
 -68.6660000  21.3720000  19.8080000 -68.1250000  21.1290000  18.8940000
 -69.6510000  20.9460000  19.6200000 -68.0310000  20.7700000  21.0110000
 -68.1840000  21.2400000  21.8920000 -67.2270000  19.7040000  20.9080000
 -66.9980000  19.1000000  19.7430000 -67.7630000  18.7310000  19.1960000
 -66.1650000  18.6730000  19.3640000 -66.7400000  19.1560000  21.9630000
 -67.4390000  18.9830000  22.6710000 -66.2520000  18.2800000  21.8450000
 -65.3970000  23.7770000  20.1760000 -65.1430000  22.8490000  19.4010000
 -64.8430000  25.0010000  20.0390000 -65.1270000  25.8240000  20.5500000
 -63.7890000  25.2420000  19.0780000 -64.2090000  24.9130000  18.1270000
 -63.5100000  26.7490000  18.8610000 -62.8870000  27.3040000  19.5620000
 -64.4990000  27.1590000  18.6570000 -62.7850000  27.1090000  17.5530000
 -62.8500000  26.4600000  16.6790000 -61.7580000  27.4520000  17.6700000
 -63.2410000  28.6550000  16.8720000 -64.9150000  28.3750000  16.3290000
 -65.7200000  28.4040000  17.0640000 -65.0200000  27.5530000  15.6210000
 -64.8550000  29.4010000  15.9640000 -62.5390000  24.4730000  19.4980000
 -61.9560000  23.7750000  18.6840000 -62.1420000  24.5750000  20.7700000
 -62.0680000  25.5490000  21.0250000 -61.0680000  23.7920000  21.3490000
 -60.1910000  24.2620000  20.9040000 -60.7420000  24.1690000  22.7850000
 -59.9280000  23.5300000  23.1270000 -61.5980000  24.1420000  23.4600000
 -60.1620000  25.5350000  22.9000000 -60.8640000  26.6480000  23.3740000
 -61.6320000  26.7220000  24.0250000 -60.0310000  27.6910000  23.3190000
 -60.0500000  28.7440000  23.5580000 -58.8800000  27.3310000  22.8710000
 -58.8950000  26.0220000  22.5820000 -57.9330000  25.7690000  22.1590000
 -61.2950000  22.2680000  21.2730000 -60.4210000  21.4800000  20.9720000
 -62.5170000  21.8410000  21.5620000 -63.2040000  22.5740000  21.6630000
 -62.8070000  20.4050000  21.5150000 -61.9720000  19.8860000  21.9840000
 -64.1580000  20.0850000  22.1040000 -64.0950000  19.0120000  21.9260000
 -64.8900000  20.5850000  21.4690000 -64.3010000  20.2980000  23.6270000
 -63.8460000  21.2630000  23.8490000 -65.7610000  20.3060000  24.1360000
 -66.0510000  19.3560000  24.5830000 -66.6180000  20.8100000  23.6900000
 -65.6600000  21.0010000  24.9700000 -63.5120000  19.2280000  24.4340000
 -62.4900000  19.1710000  24.0580000 -64.0340000  18.2750000  24.3520000
 -63.4380000  19.4210000  25.5040000 -62.7150000  19.8440000  20.0960000
 -62.0980000  18.7980000  19.8690000 -63.2670000  20.6000000  19.1380000
 -63.6050000  21.5150000  19.3990000 -63.1050000  20.3340000  17.6980000
 -63.5340000  19.3690000  17.4290000 -63.8740000  21.4200000  16.9120000
 -64.9250000  21.1680000  17.0580000 -63.6360000  22.4450000  17.1940000
 -63.7130000  21.4800000  15.3910000 -62.7150000  21.3530000  14.9730000
 -64.2820000  20.6740000  14.9280000 -64.1360000  22.8880000  14.9060000
 -65.0360000  23.3330000  15.3290000 -63.2920000  23.5570000  15.0750000
 -64.3060000  22.9330000  13.4640000 -63.5330000  23.3310000  12.9490000
 -65.3500000  22.4570000  12.7900000 -66.3560000  21.8170000  13.4050000
 -66.5720000  20.8650000  13.1430000 -67.0600000  22.2070000  14.0150000
 -65.3710000  22.5700000  11.4600000 -65.5600000  21.7600000  10.8870000
 -64.9340000  23.2720000  10.8810000 -61.6290000  20.3090000  17.2910000
 -61.2150000  19.4470000  16.5110000 -60.8310000  21.2510000  17.8170000
 -61.1620000  21.8590000  18.5530000 -59.4230000  21.3180000  17.4960000
 -59.3200000  21.4540000  16.4190000 -58.6840000  22.4640000  18.1320000
 -58.4040000  23.2480000  17.4280000 -57.6980000  22.0070000  18.0510000
 -58.6530000  23.0630000  19.5650000 -58.6200000  22.0860000  20.0460000
 -57.7980000  23.1360000  20.2380000 -58.1390000  24.4960000  19.3970000
 -58.1650000  25.6750000  19.0420000 -59.3990000  24.6040000  18.8910000
 -59.8590000  24.2010000  18.0870000 -59.7700000  25.5210000  18.6850000
 -58.6590000  20.0460000  17.8940000 -57.6640000  19.7170000  17.2290000
 -59.0890000  19.3300000  18.9550000 -59.8090000  19.5950000  19.6110000
 -58.4740000  18.0660000  19.3310000 -57.4720000  17.9500000  18.9200000
 -58.4460000  17.9200000  20.8810000 -59.3470000  17.4810000  21.3090000
 -57.6030000  17.2600000  21.0870000 -58.0870000  19.1610000  21.6590000
 -56.9800000  19.9600000  21.2970000 -56.2110000  19.6840000  20.5910000
 -56.6520000  21.0890000  22.0340000 -55.7080000  21.5560000  21.7970000
 -57.4080000  21.4490000  23.1640000 -57.0900000  22.5450000  23.8960000
 -56.6920000  23.2180000  23.3390000 -58.4830000  20.6470000  23.5600000
 -59.0120000  20.9200000  24.4610000 -58.7900000  19.4890000  22.8350000
 -59.3550000  18.7340000  23.3620000 -59.1400000  16.8520000  18.6970000
 -58.8050000  15.7270000  19.0810000 -60.0450000  17.0320000  17.7140000
 -59.7310000  17.5950000  16.9370000 -60.8610000  15.9490000  17.1540000
 -61.6930000  16.2970000  16.5420000 -59.9590000  15.0330000  16.2730000
 -60.1950000  13.9790000  16.4230000 -58.8970000  15.1850000  16.4660000
 -60.1740000  15.1930000  14.7690000 -61.0000000  14.5630000  14.4390000
 -60.3950000  16.2120000  14.4500000 -58.9910000  14.6570000  14.0200000
 -58.5230000  13.5270000  14.1930000 -58.5300000  15.3640000  13.1980000
 -61.6330000  15.1760000  18.2150000 -61.9630000  14.0020000  18.0130000
 -61.9490000  15.8320000  19.3270000 -61.8690000  16.8380000  19.2890000
 -62.6770000  15.1570000  20.4170000 -62.5660000  14.0800000  20.2860000
 -62.2920000  15.7970000  21.7650000 -62.9490000  16.6640000  21.8160000
 -61.2330000  16.0540000  21.7380000 -62.5230000  14.9520000  23.0190000
 -63.5880000  14.7190000  23.0290000 -61.7390000  13.6440000  22.9690000
 -62.0750000  12.9710000  22.1800000 -61.8800000  13.1130000  23.9100000
 -60.7260000  13.8710000  22.6370000 -62.1090000  15.7440000  24.2670000
 -62.1540000  16.8040000  24.0190000 -61.0460000  15.6170000  24.4750000
 -62.7560000  15.4260000  25.0850000 -64.1490000  15.2440000  20.1880000
 -64.9420000  14.5080000  20.8310000 -64.4420000  16.0930000  19.3200000
 -36.2830000   7.5820000  34.3960000 -36.9440000   6.7160000  34.9450000
 -36.5160000   8.8830000  34.5730000 -37.5610000   9.3650000  35.4580000
 -37.5160000  10.8630000  35.6420000 -35.1280000   7.2320000  33.5010000
 -33.9870000   7.0620000  34.3430000 -35.3020000   5.9460000  32.6900000
 -35.5540000   6.2170000  31.3080000 -34.0080000   5.1750000  32.9040000
 -33.0960000   5.3040000  31.8060000 -33.3840000   5.7780000  34.1630000
 -33.6090000   4.8890000  35.3420000 -34.4730000   5.0670000  36.3680000
 -34.3950000   4.0380000  37.2480000 -33.4720000   3.1830000  36.7870000
 -32.8930000   1.8970000  37.2230000 -33.3170000   1.3190000  38.3700000
 -31.9360000   1.3270000  36.4490000 -31.5080000   1.8990000  35.3050000
 -31.9940000   3.0730000  34.8520000 -32.9520000   3.7470000  35.5370000
 -36.4256160   8.7895180  33.6127740 -37.0663330  10.1238500  36.0627940
 -38.2590940   8.8040080  36.0797930 -38.2620370  11.5419630  36.0553850
 -36.8195520  11.4243500  35.0206110 -38.0127470  10.1038070  35.0364610
 -34.4128420   7.7776130  32.8856320 -36.2348460   5.6356250  33.1603880
 -36.2183860   6.9197130  31.3372270 -34.4913290   4.2090540  33.0467200
 -33.6881980   5.0758440  31.0757720 -32.3577520   5.9701320  33.8488290
 -35.2883560   5.7406090  36.5853460 -32.8056580   0.5171680  38.5602730
 -34.0824360   1.5480860  38.9202230 -30.6514420   1.6198490  34.7099630
